+ 0.1 0 1 cbr 1000 ------- 0 0.0 2.0 0 0
- 0.1 0 1 cbr 1000 ------- 0 0.0 2.0 0 0
r 0.158 0 1 cbr 1000 ------- 0 0.0 2.0 0 0
+ 0.158 1 2 cbr 1000 ------- 0 0.0 2.0 0 0
- 0.158 1 2 cbr 1000 ------- 0 0.0 2.0 0 0
r 0.243 1 2 cbr 1000 ------- 0 0.0 2.0 0 0
+ 0.3 0 1 cbr 1000 ------- 0 0.0 2.0 1 1
- 0.3 0 1 cbr 1000 ------- 0 0.0 2.0 1 1
r 0.358 0 1 cbr 1000 ------- 0 0.0 2.0 1 1
+ 0.358 1 2 cbr 1000 ------- 0 0.0 2.0 1 1
- 0.358 1 2 cbr 1000 ------- 0 0.0 2.0 1 1
r 0.443 1 2 cbr 1000 ------- 0 0.0 2.0 1 1
+ 0.5 0 1 cbr 1000 ------- 0 0.0 2.0 2 2
- 0.5 0 1 cbr 1000 ------- 0 0.0 2.0 2 2
r 0.558 0 1 cbr 1000 ------- 0 0.0 2.0 2 2
+ 0.558 1 2 cbr 1000 ------- 0 0.0 2.0 2 2
- 0.558 1 2 cbr 1000 ------- 0 0.0 2.0 2 2
r 0.643 1 2 cbr 1000 ------- 0 0.0 2.0 2 2
+ 0.7 0 1 cbr 1000 ------- 0 0.0 2.0 3 3
- 0.7 0 1 cbr 1000 ------- 0 0.0 2.0 3 3
r 0.758 0 1 cbr 1000 ------- 0 0.0 2.0 3 3
+ 0.758 1 2 cbr 1000 ------- 0 0.0 2.0 3 3
- 0.758 1 2 cbr 1000 ------- 0 0.0 2.0 3 3
r 0.843 1 2 cbr 1000 ------- 0 0.0 2.0 3 3
+ 0.9 0 1 cbr 1000 ------- 0 0.0 2.0 4 4
- 0.9 0 1 cbr 1000 ------- 0 0.0 2.0 4 4
r 0.958 0 1 cbr 1000 ------- 0 0.0 2.0 4 4
+ 0.958 1 2 cbr 1000 ------- 0 0.0 2.0 4 4
- 0.958 1 2 cbr 1000 ------- 0 0.0 2.0 4 4
r 1.043 1 2 cbr 1000 ------- 0 0.0 2.0 4 4
+ 1.1 0 1 cbr 1000 ------- 0 0.0 2.0 5 5
- 1.1 0 1 cbr 1000 ------- 0 0.0 2.0 5 5
r 1.158 0 1 cbr 1000 ------- 0 0.0 2.0 5 5
+ 1.158 1 2 cbr 1000 ------- 0 0.0 2.0 5 5
- 1.158 1 2 cbr 1000 ------- 0 0.0 2.0 5 5
r 1.243 1 2 cbr 1000 ------- 0 0.0 2.0 5 5
+ 1.3 0 1 cbr 1000 ------- 0 0.0 2.0 6 6
- 1.3 0 1 cbr 1000 ------- 0 0.0 2.0 6 6
r 1.358 0 1 cbr 1000 ------- 0 0.0 2.0 6 6
+ 1.358 1 2 cbr 1000 ------- 0 0.0 2.0 6 6
- 1.358 1 2 cbr 1000 ------- 0 0.0 2.0 6 6
r 1.443 1 2 cbr 1000 ------- 0 0.0 2.0 6 6
+ 1.5 0 1 cbr 1000 ------- 0 0.0 2.0 7 7
- 1.5 0 1 cbr 1000 ------- 0 0.0 2.0 7 7
r 1.558 0 1 cbr 1000 ------- 0 0.0 2.0 7 7
+ 1.558 1 2 cbr 1000 ------- 0 0.0 2.0 7 7
- 1.558 1 2 cbr 1000 ------- 0 0.0 2.0 7 7
r 1.643 1 2 cbr 1000 ------- 0 0.0 2.0 7 7
+ 1.7 0 1 cbr 1000 ------- 0 0.0 2.0 8 8
- 1.7 0 1 cbr 1000 ------- 0 0.0 2.0 8 8
r 1.758 0 1 cbr 1000 ------- 0 0.0 2.0 8 8
+ 1.758 1 2 cbr 1000 ------- 0 0.0 2.0 8 8
- 1.758 1 2 cbr 1000 ------- 0 0.0 2.0 8 8
r 1.843 1 2 cbr 1000 ------- 0 0.0 2.0 8 8
+ 1.9 0 1 cbr 1000 ------- 0 0.0 2.0 9 9
- 1.9 0 1 cbr 1000 ------- 0 0.0 2.0 9 9
r 1.958 0 1 cbr 1000 ------- 0 0.0 2.0 9 9
+ 1.958 1 2 cbr 1000 ------- 0 0.0 2.0 9 9
- 1.958 1 2 cbr 1000 ------- 0 0.0 2.0 9 9
r 2.043 1 2 cbr 1000 ------- 0 0.0 2.0 9 9
+ 2.1 0 1 cbr 1000 ------- 0 0.0 2.0 10 10
- 2.1 0 1 cbr 1000 ------- 0 0.0 2.0 10 10
r 2.158 0 1 cbr 1000 ------- 0 0.0 2.0 10 10
+ 2.158 1 2 cbr 1000 ------- 0 0.0 2.0 10 10
- 2.158 1 2 cbr 1000 ------- 0 0.0 2.0 10 10
r 2.243 1 2 cbr 1000 ------- 0 0.0 2.0 10 10
+ 2.3 0 1 cbr 1000 ------- 0 0.0 2.0 11 11
- 2.3 0 1 cbr 1000 ------- 0 0.0 2.0 11 11
r 2.358 0 1 cbr 1000 ------- 0 0.0 2.0 11 11
+ 2.358 1 2 cbr 1000 ------- 0 0.0 2.0 11 11
- 2.358 1 2 cbr 1000 ------- 0 0.0 2.0 11 11
r 2.443 1 2 cbr 1000 ------- 0 0.0 2.0 11 11
+ 2.5 0 1 cbr 1000 ------- 0 0.0 2.0 12 12
- 2.5 0 1 cbr 1000 ------- 0 0.0 2.0 12 12
r 2.558 0 1 cbr 1000 ------- 0 0.0 2.0 12 12
+ 2.558 1 2 cbr 1000 ------- 0 0.0 2.0 12 12
- 2.558 1 2 cbr 1000 ------- 0 0.0 2.0 12 12
r 2.643 1 2 cbr 1000 ------- 0 0.0 2.0 12 12
+ 2.7 0 1 cbr 1000 ------- 0 0.0 2.0 13 13
- 2.7 0 1 cbr 1000 ------- 0 0.0 2.0 13 13
r 2.758 0 1 cbr 1000 ------- 0 0.0 2.0 13 13
+ 2.758 1 2 cbr 1000 ------- 0 0.0 2.0 13 13
- 2.758 1 2 cbr 1000 ------- 0 0.0 2.0 13 13
r 2.843 1 2 cbr 1000 ------- 0 0.0 2.0 13 13
+ 2.9 0 1 cbr 1000 ------- 0 0.0 2.0 14 14
- 2.9 0 1 cbr 1000 ------- 0 0.0 2.0 14 14
r 2.958 0 1 cbr 1000 ------- 0 0.0 2.0 14 14
+ 2.958 1 2 cbr 1000 ------- 0 0.0 2.0 14 14
- 2.958 1 2 cbr 1000 ------- 0 0.0 2.0 14 14
r 3.043 1 2 cbr 1000 ------- 0 0.0 2.0 14 14
+ 3.1 0 1 cbr 1000 ------- 0 0.0 2.0 15 15
- 3.1 0 1 cbr 1000 ------- 0 0.0 2.0 15 15
r 3.158 0 1 cbr 1000 ------- 0 0.0 2.0 15 15
+ 3.158 1 2 cbr 1000 ------- 0 0.0 2.0 15 15
- 3.158 1 2 cbr 1000 ------- 0 0.0 2.0 15 15
r 3.243 1 2 cbr 1000 ------- 0 0.0 2.0 15 15
+ 3.3 0 1 cbr 1000 ------- 0 0.0 2.0 16 16
- 3.3 0 1 cbr 1000 ------- 0 0.0 2.0 16 16
r 3.358 0 1 cbr 1000 ------- 0 0.0 2.0 16 16
+ 3.358 1 2 cbr 1000 ------- 0 0.0 2.0 16 16
- 3.358 1 2 cbr 1000 ------- 0 0.0 2.0 16 16
r 3.443 1 2 cbr 1000 ------- 0 0.0 2.0 16 16
+ 3.5 0 1 cbr 1000 ------- 0 0.0 2.0 17 17
- 3.5 0 1 cbr 1000 ------- 0 0.0 2.0 17 17
r 3.558 0 1 cbr 1000 ------- 0 0.0 2.0 17 17
+ 3.558 1 2 cbr 1000 ------- 0 0.0 2.0 17 17
- 3.558 1 2 cbr 1000 ------- 0 0.0 2.0 17 17
r 3.643 1 2 cbr 1000 ------- 0 0.0 2.0 17 17
+ 3.7 0 1 cbr 1000 ------- 0 0.0 2.0 18 18
- 3.7 0 1 cbr 1000 ------- 0 0.0 2.0 18 18
r 3.758 0 1 cbr 1000 ------- 0 0.0 2.0 18 18
+ 3.758 1 2 cbr 1000 ------- 0 0.0 2.0 18 18
- 3.758 1 2 cbr 1000 ------- 0 0.0 2.0 18 18
r 3.843 1 2 cbr 1000 ------- 0 0.0 2.0 18 18
+ 3.9 0 1 cbr 1000 ------- 0 0.0 2.0 19 19
- 3.9 0 1 cbr 1000 ------- 0 0.0 2.0 19 19
r 3.958 0 1 cbr 1000 ------- 0 0.0 2.0 19 19
+ 3.958 1 2 cbr 1000 ------- 0 0.0 2.0 19 19
- 3.958 1 2 cbr 1000 ------- 0 0.0 2.0 19 19
r 4.043 1 2 cbr 1000 ------- 0 0.0 2.0 19 19
+ 4.1 0 1 cbr 1000 ------- 0 0.0 2.0 20 20
- 4.1 0 1 cbr 1000 ------- 0 0.0 2.0 20 20
r 4.158 0 1 cbr 1000 ------- 0 0.0 2.0 20 20
+ 4.158 1 2 cbr 1000 ------- 0 0.0 2.0 20 20
- 4.158 1 2 cbr 1000 ------- 0 0.0 2.0 20 20
r 4.243 1 2 cbr 1000 ------- 0 0.0 2.0 20 20
+ 4.3 0 1 cbr 1000 ------- 0 0.0 2.0 21 21
- 4.3 0 1 cbr 1000 ------- 0 0.0 2.0 21 21
r 4.358 0 1 cbr 1000 ------- 0 0.0 2.0 21 21
+ 4.358 1 2 cbr 1000 ------- 0 0.0 2.0 21 21
- 4.358 1 2 cbr 1000 ------- 0 0.0 2.0 21 21
r 4.443 1 2 cbr 1000 ------- 0 0.0 2.0 21 21
+ 4.5 0 1 cbr 1000 ------- 0 0.0 2.0 22 22
- 4.5 0 1 cbr 1000 ------- 0 0.0 2.0 22 22
r 4.558 0 1 cbr 1000 ------- 0 0.0 2.0 22 22
+ 4.558 1 2 cbr 1000 ------- 0 0.0 2.0 22 22
- 4.558 1 2 cbr 1000 ------- 0 0.0 2.0 22 22
r 4.643 1 2 cbr 1000 ------- 0 0.0 2.0 22 22
+ 4.7 0 1 cbr 1000 ------- 0 0.0 2.0 23 23
- 4.7 0 1 cbr 1000 ------- 0 0.0 2.0 23 23
r 4.758 0 1 cbr 1000 ------- 0 0.0 2.0 23 23
+ 4.758 1 2 cbr 1000 ------- 0 0.0 2.0 23 23
- 4.758 1 2 cbr 1000 ------- 0 0.0 2.0 23 23
r 4.843 1 2 cbr 1000 ------- 0 0.0 2.0 23 23
+ 4.9 0 1 cbr 1000 ------- 0 0.0 2.0 24 24
- 4.9 0 1 cbr 1000 ------- 0 0.0 2.0 24 24
r 4.958 0 1 cbr 1000 ------- 0 0.0 2.0 24 24
+ 4.958 1 2 cbr 1000 ------- 0 0.0 2.0 24 24
- 4.958 1 2 cbr 1000 ------- 0 0.0 2.0 24 24
