V -t * -v 1.0a5 -a 0
A -t * -n 1 -p 0 -o 0x7fffffff -c 30 -a 1
A -t * -h 1 -m 1073741823 -s 0
n -t * -a 0 -s 0 -S UP -v circle -c black -i black
n -t * -a 1 -s 1 -S UP -v circle -c black -i black
n -t * -a 2 -s 2 -S UP -v circle -c black -i black
l -t * -s 0 -d 1 -S UP -r 1000000 -D 0.050000000000000003 -c black -o right
l -t * -s 1 -d 2 -S UP -r 100000 -D 0.0050000000000000001 -c black -o right
+ -t 0.1 -s 0 -d 1 -p cbr -e 1000 -c 0 -i 0 -a 0 -x {0.0 2.0 0 ------- null}
- -t 0.1 -s 0 -d 1 -p cbr -e 1000 -c 0 -i 0 -a 0 -x {0.0 2.0 0 ------- null}
h -t 0.1 -s 0 -d 1 -p cbr -e 1000 -c 0 -i 0 -a 0 -x {0.0 2.0 -1 ------- null}
r -t 0.158 -s 0 -d 1 -p cbr -e 1000 -c 0 -i 0 -a 0 -x {0.0 2.0 0 ------- null}
+ -t 0.158 -s 1 -d 2 -p cbr -e 1000 -c 0 -i 0 -a 0 -x {0.0 2.0 0 ------- null}
- -t 0.158 -s 1 -d 2 -p cbr -e 1000 -c 0 -i 0 -a 0 -x {0.0 2.0 0 ------- null}
h -t 0.158 -s 1 -d 2 -p cbr -e 1000 -c 0 -i 0 -a 0 -x {0.0 2.0 -1 ------- null}
+ -t 0.166666666666667 -s 0 -d 1 -p cbr -e 1000 -c 0 -i 1 -a 0 -x {0.0 2.0 1 ------- null}
- -t 0.166666666666667 -s 0 -d 1 -p cbr -e 1000 -c 0 -i 1 -a 0 -x {0.0 2.0 1 ------- null}
h -t 0.166666666666667 -s 0 -d 1 -p cbr -e 1000 -c 0 -i 1 -a 0 -x {0.0 2.0 -1 ------- null}
r -t 0.224666666666667 -s 0 -d 1 -p cbr -e 1000 -c 0 -i 1 -a 0 -x {0.0 2.0 1 ------- null}
+ -t 0.224666666666667 -s 1 -d 2 -p cbr -e 1000 -c 0 -i 1 -a 0 -x {0.0 2.0 1 ------- null}
+ -t 0.233333333333333 -s 0 -d 1 -p cbr -e 1000 -c 0 -i 2 -a 0 -x {0.0 2.0 2 ------- null}
- -t 0.233333333333333 -s 0 -d 1 -p cbr -e 1000 -c 0 -i 2 -a 0 -x {0.0 2.0 2 ------- null}
h -t 0.233333333333333 -s 0 -d 1 -p cbr -e 1000 -c 0 -i 2 -a 0 -x {0.0 2.0 -1 ------- null}
- -t 0.238 -s 1 -d 2 -p cbr -e 1000 -c 0 -i 1 -a 0 -x {0.0 2.0 1 ------- null}
h -t 0.238 -s 1 -d 2 -p cbr -e 1000 -c 0 -i 1 -a 0 -x {0.0 2.0 -1 ------- null}
r -t 0.243 -s 1 -d 2 -p cbr -e 1000 -c 0 -i 0 -a 0 -x {0.0 2.0 0 ------- null}
r -t 0.291333333333333 -s 0 -d 1 -p cbr -e 1000 -c 0 -i 2 -a 0 -x {0.0 2.0 2 ------- null}
+ -t 0.291333333333333 -s 1 -d 2 -p cbr -e 1000 -c 0 -i 2 -a 0 -x {0.0 2.0 2 ------- null}
+ -t 0.3 -s 0 -d 1 -p cbr -e 1000 -c 0 -i 3 -a 0 -x {0.0 2.0 3 ------- null}
- -t 0.3 -s 0 -d 1 -p cbr -e 1000 -c 0 -i 3 -a 0 -x {0.0 2.0 3 ------- null}
h -t 0.3 -s 0 -d 1 -p cbr -e 1000 -c 0 -i 3 -a 0 -x {0.0 2.0 -1 ------- null}
- -t 0.318 -s 1 -d 2 -p cbr -e 1000 -c 0 -i 2 -a 0 -x {0.0 2.0 2 ------- null}
h -t 0.318 -s 1 -d 2 -p cbr -e 1000 -c 0 -i 2 -a 0 -x {0.0 2.0 -1 ------- null}
r -t 0.323 -s 1 -d 2 -p cbr -e 1000 -c 0 -i 1 -a 0 -x {0.0 2.0 1 ------- null}
r -t 0.358 -s 0 -d 1 -p cbr -e 1000 -c 0 -i 3 -a 0 -x {0.0 2.0 3 ------- null}
+ -t 0.358 -s 1 -d 2 -p cbr -e 1000 -c 0 -i 3 -a 0 -x {0.0 2.0 3 ------- null}
+ -t 0.366666666666667 -s 0 -d 1 -p cbr -e 1000 -c 0 -i 4 -a 0 -x {0.0 2.0 4 ------- null}
- -t 0.366666666666667 -s 0 -d 1 -p cbr -e 1000 -c 0 -i 4 -a 0 -x {0.0 2.0 4 ------- null}
h -t 0.366666666666667 -s 0 -d 1 -p cbr -e 1000 -c 0 -i 4 -a 0 -x {0.0 2.0 -1 ------- null}
- -t 0.398 -s 1 -d 2 -p cbr -e 1000 -c 0 -i 3 -a 0 -x {0.0 2.0 3 ------- null}
h -t 0.398 -s 1 -d 2 -p cbr -e 1000 -c 0 -i 3 -a 0 -x {0.0 2.0 -1 ------- null}
r -t 0.403 -s 1 -d 2 -p cbr -e 1000 -c 0 -i 2 -a 0 -x {0.0 2.0 2 ------- null}
r -t 0.424666666666667 -s 0 -d 1 -p cbr -e 1000 -c 0 -i 4 -a 0 -x {0.0 2.0 4 ------- null}
+ -t 0.424666666666667 -s 1 -d 2 -p cbr -e 1000 -c 0 -i 4 -a 0 -x {0.0 2.0 4 ------- null}
+ -t 0.433333333333333 -s 0 -d 1 -p cbr -e 1000 -c 0 -i 5 -a 0 -x {0.0 2.0 5 ------- null}
- -t 0.433333333333333 -s 0 -d 1 -p cbr -e 1000 -c 0 -i 5 -a 0 -x {0.0 2.0 5 ------- null}
h -t 0.433333333333333 -s 0 -d 1 -p cbr -e 1000 -c 0 -i 5 -a 0 -x {0.0 2.0 -1 ------- null}
- -t 0.478 -s 1 -d 2 -p cbr -e 1000 -c 0 -i 4 -a 0 -x {0.0 2.0 4 ------- null}
h -t 0.478 -s 1 -d 2 -p cbr -e 1000 -c 0 -i 4 -a 0 -x {0.0 2.0 -1 ------- null}
r -t 0.483 -s 1 -d 2 -p cbr -e 1000 -c 0 -i 3 -a 0 -x {0.0 2.0 3 ------- null}
r -t 0.491333333333333 -s 0 -d 1 -p cbr -e 1000 -c 0 -i 5 -a 0 -x {0.0 2.0 5 ------- null}
+ -t 0.491333333333333 -s 1 -d 2 -p cbr -e 1000 -c 0 -i 5 -a 0 -x {0.0 2.0 5 ------- null}
+ -t 0.5 -s 0 -d 1 -p cbr -e 1000 -c 0 -i 6 -a 0 -x {0.0 2.0 6 ------- null}
- -t 0.5 -s 0 -d 1 -p cbr -e 1000 -c 0 -i 6 -a 0 -x {0.0 2.0 6 ------- null}
h -t 0.5 -s 0 -d 1 -p cbr -e 1000 -c 0 -i 6 -a 0 -x {0.0 2.0 -1 ------- null}
r -t 0.558 -s 0 -d 1 -p cbr -e 1000 -c 0 -i 6 -a 0 -x {0.0 2.0 6 ------- null}
+ -t 0.558 -s 1 -d 2 -p cbr -e 1000 -c 0 -i 6 -a 0 -x {0.0 2.0 6 ------- null}
- -t 0.558 -s 1 -d 2 -p cbr -e 1000 -c 0 -i 5 -a 0 -x {0.0 2.0 5 ------- null}
h -t 0.558 -s 1 -d 2 -p cbr -e 1000 -c 0 -i 5 -a 0 -x {0.0 2.0 -1 ------- null}
r -t 0.563 -s 1 -d 2 -p cbr -e 1000 -c 0 -i 4 -a 0 -x {0.0 2.0 4 ------- null}
+ -t 0.566666666666667 -s 0 -d 1 -p cbr -e 1000 -c 0 -i 7 -a 0 -x {0.0 2.0 7 ------- null}
- -t 0.566666666666667 -s 0 -d 1 -p cbr -e 1000 -c 0 -i 7 -a 0 -x {0.0 2.0 7 ------- null}
h -t 0.566666666666667 -s 0 -d 1 -p cbr -e 1000 -c 0 -i 7 -a 0 -x {0.0 2.0 -1 ------- null}
r -t 0.624666666666667 -s 0 -d 1 -p cbr -e 1000 -c 0 -i 7 -a 0 -x {0.0 2.0 7 ------- null}
+ -t 0.624666666666667 -s 1 -d 2 -p cbr -e 1000 -c 0 -i 7 -a 0 -x {0.0 2.0 7 ------- null}
+ -t 0.633333333333333 -s 0 -d 1 -p cbr -e 1000 -c 0 -i 8 -a 0 -x {0.0 2.0 8 ------- null}
- -t 0.633333333333333 -s 0 -d 1 -p cbr -e 1000 -c 0 -i 8 -a 0 -x {0.0 2.0 8 ------- null}
h -t 0.633333333333333 -s 0 -d 1 -p cbr -e 1000 -c 0 -i 8 -a 0 -x {0.0 2.0 -1 ------- null}
- -t 0.638 -s 1 -d 2 -p cbr -e 1000 -c 0 -i 6 -a 0 -x {0.0 2.0 6 ------- null}
h -t 0.638 -s 1 -d 2 -p cbr -e 1000 -c 0 -i 6 -a 0 -x {0.0 2.0 -1 ------- null}
r -t 0.643 -s 1 -d 2 -p cbr -e 1000 -c 0 -i 5 -a 0 -x {0.0 2.0 5 ------- null}
r -t 0.691333333333333 -s 0 -d 1 -p cbr -e 1000 -c 0 -i 8 -a 0 -x {0.0 2.0 8 ------- null}
+ -t 0.691333333333333 -s 1 -d 2 -p cbr -e 1000 -c 0 -i 8 -a 0 -x {0.0 2.0 8 ------- null}
+ -t 0.7 -s 0 -d 1 -p cbr -e 1000 -c 0 -i 9 -a 0 -x {0.0 2.0 9 ------- null}
- -t 0.7 -s 0 -d 1 -p cbr -e 1000 -c 0 -i 9 -a 0 -x {0.0 2.0 9 ------- null}
h -t 0.7 -s 0 -d 1 -p cbr -e 1000 -c 0 -i 9 -a 0 -x {0.0 2.0 -1 ------- null}
- -t 0.718 -s 1 -d 2 -p cbr -e 1000 -c 0 -i 7 -a 0 -x {0.0 2.0 7 ------- null}
h -t 0.718 -s 1 -d 2 -p cbr -e 1000 -c 0 -i 7 -a 0 -x {0.0 2.0 -1 ------- null}
r -t 0.723 -s 1 -d 2 -p cbr -e 1000 -c 0 -i 6 -a 0 -x {0.0 2.0 6 ------- null}
r -t 0.758 -s 0 -d 1 -p cbr -e 1000 -c 0 -i 9 -a 0 -x {0.0 2.0 9 ------- null}
+ -t 0.758 -s 1 -d 2 -p cbr -e 1000 -c 0 -i 9 -a 0 -x {0.0 2.0 9 ------- null}
+ -t 0.766666666666667 -s 0 -d 1 -p cbr -e 1000 -c 0 -i 10 -a 0 -x {0.0 2.0 10 ------- null}
- -t 0.766666666666667 -s 0 -d 1 -p cbr -e 1000 -c 0 -i 10 -a 0 -x {0.0 2.0 10 ------- null}
h -t 0.766666666666667 -s 0 -d 1 -p cbr -e 1000 -c 0 -i 10 -a 0 -x {0.0 2.0 -1 ------- null}
- -t 0.798 -s 1 -d 2 -p cbr -e 1000 -c 0 -i 8 -a 0 -x {0.0 2.0 8 ------- null}
h -t 0.798 -s 1 -d 2 -p cbr -e 1000 -c 0 -i 8 -a 0 -x {0.0 2.0 -1 ------- null}
r -t 0.803 -s 1 -d 2 -p cbr -e 1000 -c 0 -i 7 -a 0 -x {0.0 2.0 7 ------- null}
r -t 0.824666666666667 -s 0 -d 1 -p cbr -e 1000 -c 0 -i 10 -a 0 -x {0.0 2.0 10 ------- null}
+ -t 0.824666666666667 -s 1 -d 2 -p cbr -e 1000 -c 0 -i 10 -a 0 -x {0.0 2.0 10 ------- null}
+ -t 0.833333333333333 -s 0 -d 1 -p cbr -e 1000 -c 0 -i 11 -a 0 -x {0.0 2.0 11 ------- null}
- -t 0.833333333333333 -s 0 -d 1 -p cbr -e 1000 -c 0 -i 11 -a 0 -x {0.0 2.0 11 ------- null}
h -t 0.833333333333333 -s 0 -d 1 -p cbr -e 1000 -c 0 -i 11 -a 0 -x {0.0 2.0 -1 ------- null}
- -t 0.878 -s 1 -d 2 -p cbr -e 1000 -c 0 -i 9 -a 0 -x {0.0 2.0 9 ------- null}
h -t 0.878 -s 1 -d 2 -p cbr -e 1000 -c 0 -i 9 -a 0 -x {0.0 2.0 -1 ------- null}
r -t 0.883 -s 1 -d 2 -p cbr -e 1000 -c 0 -i 8 -a 0 -x {0.0 2.0 8 ------- null}
r -t 0.891333333333333 -s 0 -d 1 -p cbr -e 1000 -c 0 -i 11 -a 0 -x {0.0 2.0 11 ------- null}
+ -t 0.891333333333333 -s 1 -d 2 -p cbr -e 1000 -c 0 -i 11 -a 0 -x {0.0 2.0 11 ------- null}
+ -t 0.9 -s 0 -d 1 -p cbr -e 1000 -c 0 -i 12 -a 0 -x {0.0 2.0 12 ------- null}
- -t 0.9 -s 0 -d 1 -p cbr -e 1000 -c 0 -i 12 -a 0 -x {0.0 2.0 12 ------- null}
h -t 0.9 -s 0 -d 1 -p cbr -e 1000 -c 0 -i 12 -a 0 -x {0.0 2.0 -1 ------- null}
- -t 0.958 -s 1 -d 2 -p cbr -e 1000 -c 0 -i 10 -a 0 -x {0.0 2.0 10 ------- null}
h -t 0.958 -s 1 -d 2 -p cbr -e 1000 -c 0 -i 10 -a 0 -x {0.0 2.0 -1 ------- null}
r -t 0.958 -s 0 -d 1 -p cbr -e 1000 -c 0 -i 12 -a 0 -x {0.0 2.0 12 ------- null}
+ -t 0.958 -s 1 -d 2 -p cbr -e 1000 -c 0 -i 12 -a 0 -x {0.0 2.0 12 ------- null}
r -t 0.963 -s 1 -d 2 -p cbr -e 1000 -c 0 -i 9 -a 0 -x {0.0 2.0 9 ------- null}
+ -t 0.966666666666667 -s 0 -d 1 -p cbr -e 1000 -c 0 -i 13 -a 0 -x {0.0 2.0 13 ------- null}
- -t 0.966666666666667 -s 0 -d 1 -p cbr -e 1000 -c 0 -i 13 -a 0 -x {0.0 2.0 13 ------- null}
h -t 0.966666666666667 -s 0 -d 1 -p cbr -e 1000 -c 0 -i 13 -a 0 -x {0.0 2.0 -1 ------- null}
r -t 1.02466666666667 -s 0 -d 1 -p cbr -e 1000 -c 0 -i 13 -a 0 -x {0.0 2.0 13 ------- null}
+ -t 1.02466666666667 -s 1 -d 2 -p cbr -e 1000 -c 0 -i 13 -a 0 -x {0.0 2.0 13 ------- null}
+ -t 1.03333333333333 -s 0 -d 1 -p cbr -e 1000 -c 0 -i 14 -a 0 -x {0.0 2.0 14 ------- null}
- -t 1.03333333333333 -s 0 -d 1 -p cbr -e 1000 -c 0 -i 14 -a 0 -x {0.0 2.0 14 ------- null}
h -t 1.03333333333333 -s 0 -d 1 -p cbr -e 1000 -c 0 -i 14 -a 0 -x {0.0 2.0 -1 ------- null}
- -t 1.038 -s 1 -d 2 -p cbr -e 1000 -c 0 -i 11 -a 0 -x {0.0 2.0 11 ------- null}
h -t 1.038 -s 1 -d 2 -p cbr -e 1000 -c 0 -i 11 -a 0 -x {0.0 2.0 -1 ------- null}
r -t 1.043 -s 1 -d 2 -p cbr -e 1000 -c 0 -i 10 -a 0 -x {0.0 2.0 10 ------- null}
r -t 1.09133333333333 -s 0 -d 1 -p cbr -e 1000 -c 0 -i 14 -a 0 -x {0.0 2.0 14 ------- null}
+ -t 1.09133333333333 -s 1 -d 2 -p cbr -e 1000 -c 0 -i 14 -a 0 -x {0.0 2.0 14 ------- null}
+ -t 1.1 -s 0 -d 1 -p cbr -e 1000 -c 0 -i 15 -a 0 -x {0.0 2.0 15 ------- null}
- -t 1.1 -s 0 -d 1 -p cbr -e 1000 -c 0 -i 15 -a 0 -x {0.0 2.0 15 ------- null}
h -t 1.1 -s 0 -d 1 -p cbr -e 1000 -c 0 -i 15 -a 0 -x {0.0 2.0 -1 ------- null}
- -t 1.118 -s 1 -d 2 -p cbr -e 1000 -c 0 -i 12 -a 0 -x {0.0 2.0 12 ------- null}
h -t 1.118 -s 1 -d 2 -p cbr -e 1000 -c 0 -i 12 -a 0 -x {0.0 2.0 -1 ------- null}
r -t 1.123 -s 1 -d 2 -p cbr -e 1000 -c 0 -i 11 -a 0 -x {0.0 2.0 11 ------- null}
r -t 1.158 -s 0 -d 1 -p cbr -e 1000 -c 0 -i 15 -a 0 -x {0.0 2.0 15 ------- null}
+ -t 1.158 -s 1 -d 2 -p cbr -e 1000 -c 0 -i 15 -a 0 -x {0.0 2.0 15 ------- null}
+ -t 1.16666666666667 -s 0 -d 1 -p cbr -e 1000 -c 0 -i 16 -a 0 -x {0.0 2.0 16 ------- null}
- -t 1.16666666666667 -s 0 -d 1 -p cbr -e 1000 -c 0 -i 16 -a 0 -x {0.0 2.0 16 ------- null}
h -t 1.16666666666667 -s 0 -d 1 -p cbr -e 1000 -c 0 -i 16 -a 0 -x {0.0 2.0 -1 ------- null}
- -t 1.198 -s 1 -d 2 -p cbr -e 1000 -c 0 -i 13 -a 0 -x {0.0 2.0 13 ------- null}
h -t 1.198 -s 1 -d 2 -p cbr -e 1000 -c 0 -i 13 -a 0 -x {0.0 2.0 -1 ------- null}
r -t 1.203 -s 1 -d 2 -p cbr -e 1000 -c 0 -i 12 -a 0 -x {0.0 2.0 12 ------- null}
r -t 1.22466666666667 -s 0 -d 1 -p cbr -e 1000 -c 0 -i 16 -a 0 -x {0.0 2.0 16 ------- null}
+ -t 1.22466666666667 -s 1 -d 2 -p cbr -e 1000 -c 0 -i 16 -a 0 -x {0.0 2.0 16 ------- null}
+ -t 1.23333333333333 -s 0 -d 1 -p cbr -e 1000 -c 0 -i 17 -a 0 -x {0.0 2.0 17 ------- null}
- -t 1.23333333333333 -s 0 -d 1 -p cbr -e 1000 -c 0 -i 17 -a 0 -x {0.0 2.0 17 ------- null}
h -t 1.23333333333333 -s 0 -d 1 -p cbr -e 1000 -c 0 -i 17 -a 0 -x {0.0 2.0 -1 ------- null}
- -t 1.278 -s 1 -d 2 -p cbr -e 1000 -c 0 -i 14 -a 0 -x {0.0 2.0 14 ------- null}
h -t 1.278 -s 1 -d 2 -p cbr -e 1000 -c 0 -i 14 -a 0 -x {0.0 2.0 -1 ------- null}
r -t 1.283 -s 1 -d 2 -p cbr -e 1000 -c 0 -i 13 -a 0 -x {0.0 2.0 13 ------- null}
r -t 1.29133333333333 -s 0 -d 1 -p cbr -e 1000 -c 0 -i 17 -a 0 -x {0.0 2.0 17 ------- null}
+ -t 1.29133333333333 -s 1 -d 2 -p cbr -e 1000 -c 0 -i 17 -a 0 -x {0.0 2.0 17 ------- null}
+ -t 1.3 -s 0 -d 1 -p cbr -e 1000 -c 0 -i 18 -a 0 -x {0.0 2.0 18 ------- null}
- -t 1.3 -s 0 -d 1 -p cbr -e 1000 -c 0 -i 18 -a 0 -x {0.0 2.0 18 ------- null}
h -t 1.3 -s 0 -d 1 -p cbr -e 1000 -c 0 -i 18 -a 0 -x {0.0 2.0 -1 ------- null}
r -t 1.358 -s 0 -d 1 -p cbr -e 1000 -c 0 -i 18 -a 0 -x {0.0 2.0 18 ------- null}
+ -t 1.358 -s 1 -d 2 -p cbr -e 1000 -c 0 -i 18 -a 0 -x {0.0 2.0 18 ------- null}
- -t 1.358 -s 1 -d 2 -p cbr -e 1000 -c 0 -i 15 -a 0 -x {0.0 2.0 15 ------- null}
h -t 1.358 -s 1 -d 2 -p cbr -e 1000 -c 0 -i 15 -a 0 -x {0.0 2.0 -1 ------- null}
r -t 1.363 -s 1 -d 2 -p cbr -e 1000 -c 0 -i 14 -a 0 -x {0.0 2.0 14 ------- null}
+ -t 1.36666666666667 -s 0 -d 1 -p cbr -e 1000 -c 0 -i 19 -a 0 -x {0.0 2.0 19 ------- null}
- -t 1.36666666666667 -s 0 -d 1 -p cbr -e 1000 -c 0 -i 19 -a 0 -x {0.0 2.0 19 ------- null}
h -t 1.36666666666667 -s 0 -d 1 -p cbr -e 1000 -c 0 -i 19 -a 0 -x {0.0 2.0 -1 ------- null}
r -t 1.42466666666667 -s 0 -d 1 -p cbr -e 1000 -c 0 -i 19 -a 0 -x {0.0 2.0 19 ------- null}
+ -t 1.42466666666667 -s 1 -d 2 -p cbr -e 1000 -c 0 -i 19 -a 0 -x {0.0 2.0 19 ------- null}
+ -t 1.43333333333333 -s 0 -d 1 -p cbr -e 1000 -c 0 -i 20 -a 0 -x {0.0 2.0 20 ------- null}
- -t 1.43333333333333 -s 0 -d 1 -p cbr -e 1000 -c 0 -i 20 -a 0 -x {0.0 2.0 20 ------- null}
h -t 1.43333333333333 -s 0 -d 1 -p cbr -e 1000 -c 0 -i 20 -a 0 -x {0.0 2.0 -1 ------- null}
- -t 1.438 -s 1 -d 2 -p cbr -e 1000 -c 0 -i 16 -a 0 -x {0.0 2.0 16 ------- null}
h -t 1.438 -s 1 -d 2 -p cbr -e 1000 -c 0 -i 16 -a 0 -x {0.0 2.0 -1 ------- null}
r -t 1.443 -s 1 -d 2 -p cbr -e 1000 -c 0 -i 15 -a 0 -x {0.0 2.0 15 ------- null}
r -t 1.49133333333333 -s 0 -d 1 -p cbr -e 1000 -c 0 -i 20 -a 0 -x {0.0 2.0 20 ------- null}
+ -t 1.49133333333333 -s 1 -d 2 -p cbr -e 1000 -c 0 -i 20 -a 0 -x {0.0 2.0 20 ------- null}
+ -t 1.5 -s 0 -d 1 -p cbr -e 1000 -c 0 -i 21 -a 0 -x {0.0 2.0 21 ------- null}
- -t 1.5 -s 0 -d 1 -p cbr -e 1000 -c 0 -i 21 -a 0 -x {0.0 2.0 21 ------- null}
h -t 1.5 -s 0 -d 1 -p cbr -e 1000 -c 0 -i 21 -a 0 -x {0.0 2.0 -1 ------- null}
- -t 1.518 -s 1 -d 2 -p cbr -e 1000 -c 0 -i 17 -a 0 -x {0.0 2.0 17 ------- null}
h -t 1.518 -s 1 -d 2 -p cbr -e 1000 -c 0 -i 17 -a 0 -x {0.0 2.0 -1 ------- null}
r -t 1.523 -s 1 -d 2 -p cbr -e 1000 -c 0 -i 16 -a 0 -x {0.0 2.0 16 ------- null}
r -t 1.558 -s 0 -d 1 -p cbr -e 1000 -c 0 -i 21 -a 0 -x {0.0 2.0 21 ------- null}
+ -t 1.558 -s 1 -d 2 -p cbr -e 1000 -c 0 -i 21 -a 0 -x {0.0 2.0 21 ------- null}
+ -t 1.56666666666667 -s 0 -d 1 -p cbr -e 1000 -c 0 -i 22 -a 0 -x {0.0 2.0 22 ------- null}
- -t 1.56666666666667 -s 0 -d 1 -p cbr -e 1000 -c 0 -i 22 -a 0 -x {0.0 2.0 22 ------- null}
h -t 1.56666666666667 -s 0 -d 1 -p cbr -e 1000 -c 0 -i 22 -a 0 -x {0.0 2.0 -1 ------- null}
- -t 1.598 -s 1 -d 2 -p cbr -e 1000 -c 0 -i 18 -a 0 -x {0.0 2.0 18 ------- null}
h -t 1.598 -s 1 -d 2 -p cbr -e 1000 -c 0 -i 18 -a 0 -x {0.0 2.0 -1 ------- null}
r -t 1.603 -s 1 -d 2 -p cbr -e 1000 -c 0 -i 17 -a 0 -x {0.0 2.0 17 ------- null}
r -t 1.62466666666667 -s 0 -d 1 -p cbr -e 1000 -c 0 -i 22 -a 0 -x {0.0 2.0 22 ------- null}
+ -t 1.62466666666667 -s 1 -d 2 -p cbr -e 1000 -c 0 -i 22 -a 0 -x {0.0 2.0 22 ------- null}
+ -t 1.63333333333333 -s 0 -d 1 -p cbr -e 1000 -c 0 -i 23 -a 0 -x {0.0 2.0 23 ------- null}
- -t 1.63333333333333 -s 0 -d 1 -p cbr -e 1000 -c 0 -i 23 -a 0 -x {0.0 2.0 23 ------- null}
h -t 1.63333333333333 -s 0 -d 1 -p cbr -e 1000 -c 0 -i 23 -a 0 -x {0.0 2.0 -1 ------- null}
- -t 1.678 -s 1 -d 2 -p cbr -e 1000 -c 0 -i 19 -a 0 -x {0.0 2.0 19 ------- null}
h -t 1.678 -s 1 -d 2 -p cbr -e 1000 -c 0 -i 19 -a 0 -x {0.0 2.0 -1 ------- null}
r -t 1.683 -s 1 -d 2 -p cbr -e 1000 -c 0 -i 18 -a 0 -x {0.0 2.0 18 ------- null}
r -t 1.69133333333333 -s 0 -d 1 -p cbr -e 1000 -c 0 -i 23 -a 0 -x {0.0 2.0 23 ------- null}
+ -t 1.69133333333333 -s 1 -d 2 -p cbr -e 1000 -c 0 -i 23 -a 0 -x {0.0 2.0 23 ------- null}
+ -t 1.7 -s 0 -d 1 -p cbr -e 1000 -c 0 -i 24 -a 0 -x {0.0 2.0 24 ------- null}
- -t 1.7 -s 0 -d 1 -p cbr -e 1000 -c 0 -i 24 -a 0 -x {0.0 2.0 24 ------- null}
h -t 1.7 -s 0 -d 1 -p cbr -e 1000 -c 0 -i 24 -a 0 -x {0.0 2.0 -1 ------- null}
r -t 1.758 -s 0 -d 1 -p cbr -e 1000 -c 0 -i 24 -a 0 -x {0.0 2.0 24 ------- null}
+ -t 1.758 -s 1 -d 2 -p cbr -e 1000 -c 0 -i 24 -a 0 -x {0.0 2.0 24 ------- null}
- -t 1.758 -s 1 -d 2 -p cbr -e 1000 -c 0 -i 20 -a 0 -x {0.0 2.0 20 ------- null}
h -t 1.758 -s 1 -d 2 -p cbr -e 1000 -c 0 -i 20 -a 0 -x {0.0 2.0 -1 ------- null}
r -t 1.763 -s 1 -d 2 -p cbr -e 1000 -c 0 -i 19 -a 0 -x {0.0 2.0 19 ------- null}
+ -t 1.76666666666667 -s 0 -d 1 -p cbr -e 1000 -c 0 -i 25 -a 0 -x {0.0 2.0 25 ------- null}
- -t 1.76666666666667 -s 0 -d 1 -p cbr -e 1000 -c 0 -i 25 -a 0 -x {0.0 2.0 25 ------- null}
h -t 1.76666666666667 -s 0 -d 1 -p cbr -e 1000 -c 0 -i 25 -a 0 -x {0.0 2.0 -1 ------- null}
r -t 1.82466666666667 -s 0 -d 1 -p cbr -e 1000 -c 0 -i 25 -a 0 -x {0.0 2.0 25 ------- null}
+ -t 1.82466666666667 -s 1 -d 2 -p cbr -e 1000 -c 0 -i 25 -a 0 -x {0.0 2.0 25 ------- null}
+ -t 1.83333333333333 -s 0 -d 1 -p cbr -e 1000 -c 0 -i 26 -a 0 -x {0.0 2.0 26 ------- null}
- -t 1.83333333333333 -s 0 -d 1 -p cbr -e 1000 -c 0 -i 26 -a 0 -x {0.0 2.0 26 ------- null}
h -t 1.83333333333333 -s 0 -d 1 -p cbr -e 1000 -c 0 -i 26 -a 0 -x {0.0 2.0 -1 ------- null}
- -t 1.838 -s 1 -d 2 -p cbr -e 1000 -c 0 -i 21 -a 0 -x {0.0 2.0 21 ------- null}
h -t 1.838 -s 1 -d 2 -p cbr -e 1000 -c 0 -i 21 -a 0 -x {0.0 2.0 -1 ------- null}
r -t 1.843 -s 1 -d 2 -p cbr -e 1000 -c 0 -i 20 -a 0 -x {0.0 2.0 20 ------- null}
r -t 1.89133333333333 -s 0 -d 1 -p cbr -e 1000 -c 0 -i 26 -a 0 -x {0.0 2.0 26 ------- null}
+ -t 1.89133333333333 -s 1 -d 2 -p cbr -e 1000 -c 0 -i 26 -a 0 -x {0.0 2.0 26 ------- null}
+ -t 1.9 -s 0 -d 1 -p cbr -e 1000 -c 0 -i 27 -a 0 -x {0.0 2.0 27 ------- null}
- -t 1.9 -s 0 -d 1 -p cbr -e 1000 -c 0 -i 27 -a 0 -x {0.0 2.0 27 ------- null}
h -t 1.9 -s 0 -d 1 -p cbr -e 1000 -c 0 -i 27 -a 0 -x {0.0 2.0 -1 ------- null}
- -t 1.918 -s 1 -d 2 -p cbr -e 1000 -c 0 -i 22 -a 0 -x {0.0 2.0 22 ------- null}
h -t 1.918 -s 1 -d 2 -p cbr -e 1000 -c 0 -i 22 -a 0 -x {0.0 2.0 -1 ------- null}
r -t 1.923 -s 1 -d 2 -p cbr -e 1000 -c 0 -i 21 -a 0 -x {0.0 2.0 21 ------- null}
r -t 1.958 -s 0 -d 1 -p cbr -e 1000 -c 0 -i 27 -a 0 -x {0.0 2.0 27 ------- null}
+ -t 1.958 -s 1 -d 2 -p cbr -e 1000 -c 0 -i 27 -a 0 -x {0.0 2.0 27 ------- null}
+ -t 1.96666666666667 -s 0 -d 1 -p cbr -e 1000 -c 0 -i 28 -a 0 -x {0.0 2.0 28 ------- null}
- -t 1.96666666666667 -s 0 -d 1 -p cbr -e 1000 -c 0 -i 28 -a 0 -x {0.0 2.0 28 ------- null}
h -t 1.96666666666667 -s 0 -d 1 -p cbr -e 1000 -c 0 -i 28 -a 0 -x {0.0 2.0 -1 ------- null}
- -t 1.998 -s 1 -d 2 -p cbr -e 1000 -c 0 -i 23 -a 0 -x {0.0 2.0 23 ------- null}
h -t 1.998 -s 1 -d 2 -p cbr -e 1000 -c 0 -i 23 -a 0 -x {0.0 2.0 -1 ------- null}
r -t 2.003 -s 1 -d 2 -p cbr -e 1000 -c 0 -i 22 -a 0 -x {0.0 2.0 22 ------- null}
r -t 2.02466666666667 -s 0 -d 1 -p cbr -e 1000 -c 0 -i 28 -a 0 -x {0.0 2.0 28 ------- null}
+ -t 2.02466666666667 -s 1 -d 2 -p cbr -e 1000 -c 0 -i 28 -a 0 -x {0.0 2.0 28 ------- null}
+ -t 2.03333333333333 -s 0 -d 1 -p cbr -e 1000 -c 0 -i 29 -a 0 -x {0.0 2.0 29 ------- null}
- -t 2.03333333333333 -s 0 -d 1 -p cbr -e 1000 -c 0 -i 29 -a 0 -x {0.0 2.0 29 ------- null}
h -t 2.03333333333333 -s 0 -d 1 -p cbr -e 1000 -c 0 -i 29 -a 0 -x {0.0 2.0 -1 ------- null}
- -t 2.078 -s 1 -d 2 -p cbr -e 1000 -c 0 -i 24 -a 0 -x {0.0 2.0 24 ------- null}
h -t 2.078 -s 1 -d 2 -p cbr -e 1000 -c 0 -i 24 -a 0 -x {0.0 2.0 -1 ------- null}
r -t 2.083 -s 1 -d 2 -p cbr -e 1000 -c 0 -i 23 -a 0 -x {0.0 2.0 23 ------- null}
r -t 2.09133333333333 -s 0 -d 1 -p cbr -e 1000 -c 0 -i 29 -a 0 -x {0.0 2.0 29 ------- null}
+ -t 2.09133333333333 -s 1 -d 2 -p cbr -e 1000 -c 0 -i 29 -a 0 -x {0.0 2.0 29 ------- null}
+ -t 2.1 -s 0 -d 1 -p cbr -e 1000 -c 0 -i 30 -a 0 -x {0.0 2.0 30 ------- null}
- -t 2.1 -s 0 -d 1 -p cbr -e 1000 -c 0 -i 30 -a 0 -x {0.0 2.0 30 ------- null}
h -t 2.1 -s 0 -d 1 -p cbr -e 1000 -c 0 -i 30 -a 0 -x {0.0 2.0 -1 ------- null}
r -t 2.158 -s 0 -d 1 -p cbr -e 1000 -c 0 -i 30 -a 0 -x {0.0 2.0 30 ------- null}
+ -t 2.158 -s 1 -d 2 -p cbr -e 1000 -c 0 -i 30 -a 0 -x {0.0 2.0 30 ------- null}
- -t 2.158 -s 1 -d 2 -p cbr -e 1000 -c 0 -i 25 -a 0 -x {0.0 2.0 25 ------- null}
h -t 2.158 -s 1 -d 2 -p cbr -e 1000 -c 0 -i 25 -a 0 -x {0.0 2.0 -1 ------- null}
r -t 2.163 -s 1 -d 2 -p cbr -e 1000 -c 0 -i 24 -a 0 -x {0.0 2.0 24 ------- null}
+ -t 2.16666666666667 -s 0 -d 1 -p cbr -e 1000 -c 0 -i 31 -a 0 -x {0.0 2.0 31 ------- null}
- -t 2.16666666666667 -s 0 -d 1 -p cbr -e 1000 -c 0 -i 31 -a 0 -x {0.0 2.0 31 ------- null}
h -t 2.16666666666667 -s 0 -d 1 -p cbr -e 1000 -c 0 -i 31 -a 0 -x {0.0 2.0 -1 ------- null}
r -t 2.22466666666667 -s 0 -d 1 -p cbr -e 1000 -c 0 -i 31 -a 0 -x {0.0 2.0 31 ------- null}
+ -t 2.22466666666667 -s 1 -d 2 -p cbr -e 1000 -c 0 -i 31 -a 0 -x {0.0 2.0 31 ------- null}
+ -t 2.23333333333333 -s 0 -d 1 -p cbr -e 1000 -c 0 -i 32 -a 0 -x {0.0 2.0 32 ------- null}
- -t 2.23333333333333 -s 0 -d 1 -p cbr -e 1000 -c 0 -i 32 -a 0 -x {0.0 2.0 32 ------- null}
h -t 2.23333333333333 -s 0 -d 1 -p cbr -e 1000 -c 0 -i 32 -a 0 -x {0.0 2.0 -1 ------- null}
- -t 2.238 -s 1 -d 2 -p cbr -e 1000 -c 0 -i 26 -a 0 -x {0.0 2.0 26 ------- null}
h -t 2.238 -s 1 -d 2 -p cbr -e 1000 -c 0 -i 26 -a 0 -x {0.0 2.0 -1 ------- null}
r -t 2.243 -s 1 -d 2 -p cbr -e 1000 -c 0 -i 25 -a 0 -x {0.0 2.0 25 ------- null}
r -t 2.29133333333333 -s 0 -d 1 -p cbr -e 1000 -c 0 -i 32 -a 0 -x {0.0 2.0 32 ------- null}
+ -t 2.29133333333333 -s 1 -d 2 -p cbr -e 1000 -c 0 -i 32 -a 0 -x {0.0 2.0 32 ------- null}
+ -t 2.3 -s 0 -d 1 -p cbr -e 1000 -c 0 -i 33 -a 0 -x {0.0 2.0 33 ------- null}
- -t 2.3 -s 0 -d 1 -p cbr -e 1000 -c 0 -i 33 -a 0 -x {0.0 2.0 33 ------- null}
h -t 2.3 -s 0 -d 1 -p cbr -e 1000 -c 0 -i 33 -a 0 -x {0.0 2.0 -1 ------- null}
- -t 2.318 -s 1 -d 2 -p cbr -e 1000 -c 0 -i 27 -a 0 -x {0.0 2.0 27 ------- null}
h -t 2.318 -s 1 -d 2 -p cbr -e 1000 -c 0 -i 27 -a 0 -x {0.0 2.0 -1 ------- null}
r -t 2.323 -s 1 -d 2 -p cbr -e 1000 -c 0 -i 26 -a 0 -x {0.0 2.0 26 ------- null}
r -t 2.358 -s 0 -d 1 -p cbr -e 1000 -c 0 -i 33 -a 0 -x {0.0 2.0 33 ------- null}
+ -t 2.358 -s 1 -d 2 -p cbr -e 1000 -c 0 -i 33 -a 0 -x {0.0 2.0 33 ------- null}
+ -t 2.36666666666667 -s 0 -d 1 -p cbr -e 1000 -c 0 -i 34 -a 0 -x {0.0 2.0 34 ------- null}
- -t 2.36666666666667 -s 0 -d 1 -p cbr -e 1000 -c 0 -i 34 -a 0 -x {0.0 2.0 34 ------- null}
h -t 2.36666666666667 -s 0 -d 1 -p cbr -e 1000 -c 0 -i 34 -a 0 -x {0.0 2.0 -1 ------- null}
- -t 2.398 -s 1 -d 2 -p cbr -e 1000 -c 0 -i 28 -a 0 -x {0.0 2.0 28 ------- null}
h -t 2.398 -s 1 -d 2 -p cbr -e 1000 -c 0 -i 28 -a 0 -x {0.0 2.0 -1 ------- null}
r -t 2.403 -s 1 -d 2 -p cbr -e 1000 -c 0 -i 27 -a 0 -x {0.0 2.0 27 ------- null}
r -t 2.42466666666667 -s 0 -d 1 -p cbr -e 1000 -c 0 -i 34 -a 0 -x {0.0 2.0 34 ------- null}
+ -t 2.42466666666667 -s 1 -d 2 -p cbr -e 1000 -c 0 -i 34 -a 0 -x {0.0 2.0 34 ------- null}
+ -t 2.43333333333333 -s 0 -d 1 -p cbr -e 1000 -c 0 -i 35 -a 0 -x {0.0 2.0 35 ------- null}
- -t 2.43333333333333 -s 0 -d 1 -p cbr -e 1000 -c 0 -i 35 -a 0 -x {0.0 2.0 35 ------- null}
h -t 2.43333333333333 -s 0 -d 1 -p cbr -e 1000 -c 0 -i 35 -a 0 -x {0.0 2.0 -1 ------- null}
- -t 2.478 -s 1 -d 2 -p cbr -e 1000 -c 0 -i 29 -a 0 -x {0.0 2.0 29 ------- null}
h -t 2.478 -s 1 -d 2 -p cbr -e 1000 -c 0 -i 29 -a 0 -x {0.0 2.0 -1 ------- null}
r -t 2.483 -s 1 -d 2 -p cbr -e 1000 -c 0 -i 28 -a 0 -x {0.0 2.0 28 ------- null}
r -t 2.49133333333333 -s 0 -d 1 -p cbr -e 1000 -c 0 -i 35 -a 0 -x {0.0 2.0 35 ------- null}
+ -t 2.49133333333333 -s 1 -d 2 -p cbr -e 1000 -c 0 -i 35 -a 0 -x {0.0 2.0 35 ------- null}
+ -t 2.5 -s 0 -d 1 -p cbr -e 1000 -c 0 -i 36 -a 0 -x {0.0 2.0 36 ------- null}
- -t 2.5 -s 0 -d 1 -p cbr -e 1000 -c 0 -i 36 -a 0 -x {0.0 2.0 36 ------- null}
h -t 2.5 -s 0 -d 1 -p cbr -e 1000 -c 0 -i 36 -a 0 -x {0.0 2.0 -1 ------- null}
- -t 2.558 -s 1 -d 2 -p cbr -e 1000 -c 0 -i 30 -a 0 -x {0.0 2.0 30 ------- null}
h -t 2.558 -s 1 -d 2 -p cbr -e 1000 -c 0 -i 30 -a 0 -x {0.0 2.0 -1 ------- null}
r -t 2.558 -s 0 -d 1 -p cbr -e 1000 -c 0 -i 36 -a 0 -x {0.0 2.0 36 ------- null}
+ -t 2.558 -s 1 -d 2 -p cbr -e 1000 -c 0 -i 36 -a 0 -x {0.0 2.0 36 ------- null}
r -t 2.563 -s 1 -d 2 -p cbr -e 1000 -c 0 -i 29 -a 0 -x {0.0 2.0 29 ------- null}
+ -t 2.56666666666667 -s 0 -d 1 -p cbr -e 1000 -c 0 -i 37 -a 0 -x {0.0 2.0 37 ------- null}
- -t 2.56666666666667 -s 0 -d 1 -p cbr -e 1000 -c 0 -i 37 -a 0 -x {0.0 2.0 37 ------- null}
h -t 2.56666666666667 -s 0 -d 1 -p cbr -e 1000 -c 0 -i 37 -a 0 -x {0.0 2.0 -1 ------- null}
r -t 2.62466666666667 -s 0 -d 1 -p cbr -e 1000 -c 0 -i 37 -a 0 -x {0.0 2.0 37 ------- null}
+ -t 2.62466666666667 -s 1 -d 2 -p cbr -e 1000 -c 0 -i 37 -a 0 -x {0.0 2.0 37 ------- null}
+ -t 2.63333333333334 -s 0 -d 1 -p cbr -e 1000 -c 0 -i 38 -a 0 -x {0.0 2.0 38 ------- null}
- -t 2.63333333333334 -s 0 -d 1 -p cbr -e 1000 -c 0 -i 38 -a 0 -x {0.0 2.0 38 ------- null}
h -t 2.63333333333334 -s 0 -d 1 -p cbr -e 1000 -c 0 -i 38 -a 0 -x {0.0 2.0 -1 ------- null}
- -t 2.638 -s 1 -d 2 -p cbr -e 1000 -c 0 -i 31 -a 0 -x {0.0 2.0 31 ------- null}
h -t 2.638 -s 1 -d 2 -p cbr -e 1000 -c 0 -i 31 -a 0 -x {0.0 2.0 -1 ------- null}
r -t 2.643 -s 1 -d 2 -p cbr -e 1000 -c 0 -i 30 -a 0 -x {0.0 2.0 30 ------- null}
r -t 2.69133333333333 -s 0 -d 1 -p cbr -e 1000 -c 0 -i 38 -a 0 -x {0.0 2.0 38 ------- null}
+ -t 2.69133333333333 -s 1 -d 2 -p cbr -e 1000 -c 0 -i 38 -a 0 -x {0.0 2.0 38 ------- null}
+ -t 2.7 -s 0 -d 1 -p cbr -e 1000 -c 0 -i 39 -a 0 -x {0.0 2.0 39 ------- null}
- -t 2.7 -s 0 -d 1 -p cbr -e 1000 -c 0 -i 39 -a 0 -x {0.0 2.0 39 ------- null}
h -t 2.7 -s 0 -d 1 -p cbr -e 1000 -c 0 -i 39 -a 0 -x {0.0 2.0 -1 ------- null}
- -t 2.718 -s 1 -d 2 -p cbr -e 1000 -c 0 -i 32 -a 0 -x {0.0 2.0 32 ------- null}
h -t 2.718 -s 1 -d 2 -p cbr -e 1000 -c 0 -i 32 -a 0 -x {0.0 2.0 -1 ------- null}
r -t 2.723 -s 1 -d 2 -p cbr -e 1000 -c 0 -i 31 -a 0 -x {0.0 2.0 31 ------- null}
r -t 2.758 -s 0 -d 1 -p cbr -e 1000 -c 0 -i 39 -a 0 -x {0.0 2.0 39 ------- null}
+ -t 2.758 -s 1 -d 2 -p cbr -e 1000 -c 0 -i 39 -a 0 -x {0.0 2.0 39 ------- null}
+ -t 2.76666666666667 -s 0 -d 1 -p cbr -e 1000 -c 0 -i 40 -a 0 -x {0.0 2.0 40 ------- null}
- -t 2.76666666666667 -s 0 -d 1 -p cbr -e 1000 -c 0 -i 40 -a 0 -x {0.0 2.0 40 ------- null}
h -t 2.76666666666667 -s 0 -d 1 -p cbr -e 1000 -c 0 -i 40 -a 0 -x {0.0 2.0 -1 ------- null}
- -t 2.798 -s 1 -d 2 -p cbr -e 1000 -c 0 -i 33 -a 0 -x {0.0 2.0 33 ------- null}
h -t 2.798 -s 1 -d 2 -p cbr -e 1000 -c 0 -i 33 -a 0 -x {0.0 2.0 -1 ------- null}
r -t 2.803 -s 1 -d 2 -p cbr -e 1000 -c 0 -i 32 -a 0 -x {0.0 2.0 32 ------- null}
r -t 2.82466666666667 -s 0 -d 1 -p cbr -e 1000 -c 0 -i 40 -a 0 -x {0.0 2.0 40 ------- null}
+ -t 2.82466666666667 -s 1 -d 2 -p cbr -e 1000 -c 0 -i 40 -a 0 -x {0.0 2.0 40 ------- null}
+ -t 2.83333333333334 -s 0 -d 1 -p cbr -e 1000 -c 0 -i 41 -a 0 -x {0.0 2.0 41 ------- null}
- -t 2.83333333333334 -s 0 -d 1 -p cbr -e 1000 -c 0 -i 41 -a 0 -x {0.0 2.0 41 ------- null}
h -t 2.83333333333334 -s 0 -d 1 -p cbr -e 1000 -c 0 -i 41 -a 0 -x {0.0 2.0 -1 ------- null}
- -t 2.878 -s 1 -d 2 -p cbr -e 1000 -c 0 -i 34 -a 0 -x {0.0 2.0 34 ------- null}
h -t 2.878 -s 1 -d 2 -p cbr -e 1000 -c 0 -i 34 -a 0 -x {0.0 2.0 -1 ------- null}
r -t 2.883 -s 1 -d 2 -p cbr -e 1000 -c 0 -i 33 -a 0 -x {0.0 2.0 33 ------- null}
r -t 2.89133333333334 -s 0 -d 1 -p cbr -e 1000 -c 0 -i 41 -a 0 -x {0.0 2.0 41 ------- null}
+ -t 2.89133333333334 -s 1 -d 2 -p cbr -e 1000 -c 0 -i 41 -a 0 -x {0.0 2.0 41 ------- null}
+ -t 2.9 -s 0 -d 1 -p cbr -e 1000 -c 0 -i 42 -a 0 -x {0.0 2.0 42 ------- null}
- -t 2.9 -s 0 -d 1 -p cbr -e 1000 -c 0 -i 42 -a 0 -x {0.0 2.0 42 ------- null}
h -t 2.9 -s 0 -d 1 -p cbr -e 1000 -c 0 -i 42 -a 0 -x {0.0 2.0 -1 ------- null}
- -t 2.958 -s 1 -d 2 -p cbr -e 1000 -c 0 -i 35 -a 0 -x {0.0 2.0 35 ------- null}
h -t 2.958 -s 1 -d 2 -p cbr -e 1000 -c 0 -i 35 -a 0 -x {0.0 2.0 -1 ------- null}
r -t 2.958 -s 0 -d 1 -p cbr -e 1000 -c 0 -i 42 -a 0 -x {0.0 2.0 42 ------- null}
+ -t 2.958 -s 1 -d 2 -p cbr -e 1000 -c 0 -i 42 -a 0 -x {0.0 2.0 42 ------- null}
r -t 2.963 -s 1 -d 2 -p cbr -e 1000 -c 0 -i 34 -a 0 -x {0.0 2.0 34 ------- null}
+ -t 2.96666666666667 -s 0 -d 1 -p cbr -e 1000 -c 0 -i 43 -a 0 -x {0.0 2.0 43 ------- null}
- -t 2.96666666666667 -s 0 -d 1 -p cbr -e 1000 -c 0 -i 43 -a 0 -x {0.0 2.0 43 ------- null}
h -t 2.96666666666667 -s 0 -d 1 -p cbr -e 1000 -c 0 -i 43 -a 0 -x {0.0 2.0 -1 ------- null}
r -t 3.02466666666667 -s 0 -d 1 -p cbr -e 1000 -c 0 -i 43 -a 0 -x {0.0 2.0 43 ------- null}
+ -t 3.02466666666667 -s 1 -d 2 -p cbr -e 1000 -c 0 -i 43 -a 0 -x {0.0 2.0 43 ------- null}
+ -t 3.03333333333334 -s 0 -d 1 -p cbr -e 1000 -c 0 -i 44 -a 0 -x {0.0 2.0 44 ------- null}
- -t 3.03333333333334 -s 0 -d 1 -p cbr -e 1000 -c 0 -i 44 -a 0 -x {0.0 2.0 44 ------- null}
h -t 3.03333333333334 -s 0 -d 1 -p cbr -e 1000 -c 0 -i 44 -a 0 -x {0.0 2.0 -1 ------- null}
- -t 3.038 -s 1 -d 2 -p cbr -e 1000 -c 0 -i 36 -a 0 -x {0.0 2.0 36 ------- null}
h -t 3.038 -s 1 -d 2 -p cbr -e 1000 -c 0 -i 36 -a 0 -x {0.0 2.0 -1 ------- null}
r -t 3.043 -s 1 -d 2 -p cbr -e 1000 -c 0 -i 35 -a 0 -x {0.0 2.0 35 ------- null}
r -t 3.09133333333334 -s 0 -d 1 -p cbr -e 1000 -c 0 -i 44 -a 0 -x {0.0 2.0 44 ------- null}
+ -t 3.09133333333334 -s 1 -d 2 -p cbr -e 1000 -c 0 -i 44 -a 0 -x {0.0 2.0 44 ------- null}
+ -t 3.1 -s 0 -d 1 -p cbr -e 1000 -c 0 -i 45 -a 0 -x {0.0 2.0 45 ------- null}
- -t 3.1 -s 0 -d 1 -p cbr -e 1000 -c 0 -i 45 -a 0 -x {0.0 2.0 45 ------- null}
h -t 3.1 -s 0 -d 1 -p cbr -e 1000 -c 0 -i 45 -a 0 -x {0.0 2.0 -1 ------- null}
- -t 3.118 -s 1 -d 2 -p cbr -e 1000 -c 0 -i 37 -a 0 -x {0.0 2.0 37 ------- null}
h -t 3.118 -s 1 -d 2 -p cbr -e 1000 -c 0 -i 37 -a 0 -x {0.0 2.0 -1 ------- null}
r -t 3.123 -s 1 -d 2 -p cbr -e 1000 -c 0 -i 36 -a 0 -x {0.0 2.0 36 ------- null}
r -t 3.158 -s 0 -d 1 -p cbr -e 1000 -c 0 -i 45 -a 0 -x {0.0 2.0 45 ------- null}
+ -t 3.158 -s 1 -d 2 -p cbr -e 1000 -c 0 -i 45 -a 0 -x {0.0 2.0 45 ------- null}
+ -t 3.16666666666667 -s 0 -d 1 -p cbr -e 1000 -c 0 -i 46 -a 0 -x {0.0 2.0 46 ------- null}
- -t 3.16666666666667 -s 0 -d 1 -p cbr -e 1000 -c 0 -i 46 -a 0 -x {0.0 2.0 46 ------- null}
h -t 3.16666666666667 -s 0 -d 1 -p cbr -e 1000 -c 0 -i 46 -a 0 -x {0.0 2.0 -1 ------- null}
- -t 3.198 -s 1 -d 2 -p cbr -e 1000 -c 0 -i 38 -a 0 -x {0.0 2.0 38 ------- null}