V -t * -v 1.0a5 -a 0
A -t * -n 1 -p 0 -o 0x7fffffff -c 30 -a 1
A -t * -h 1 -m 1073741823 -s 0
c -t * -i 1 -n Blue
c -t * -i 2 -n Red
n -t * -a 0 -s 0 -S UP -v circle -c black -i black
n -t * -a 1 -s 1 -S UP -v circle -c black -i black
n -t * -a 2 -s 2 -S UP -v circle -c black -i black
n -t * -a 3 -s 3 -S UP -v circle -c black -i black
l -t * -s 0 -d 2 -S UP -r 1000000 -D 0.01 -c black -o right-down
l -t * -s 1 -d 2 -S UP -r 1000000 -D 0.01 -c black -o right-up
l -t * -s 2 -d 3 -S UP -r 1000000 -D 0.01 -c black -o right
q -t * -s 2 -d 3 -a 0.5
q -t * -s 3 -d 2 -a 0.5
+ -t 0.1 -s 1 -d 2 -p cbr -e 500 -c 2 -i 0 -a 2 -x {1.0 3.0 0 ------- null}
- -t 0.1 -s 1 -d 2 -p cbr -e 500 -c 2 -i 0 -a 2 -x {1.0 3.0 0 ------- null}
h -t 0.1 -s 1 -d 2 -p cbr -e 500 -c 2 -i 0 -a 2 -x {1.0 3.0 -1 ------- null}
+ -t 0.105 -s 1 -d 2 -p cbr -e 500 -c 2 -i 1 -a 2 -x {1.0 3.0 1 ------- null}
- -t 0.105 -s 1 -d 2 -p cbr -e 500 -c 2 -i 1 -a 2 -x {1.0 3.0 1 ------- null}
h -t 0.105 -s 1 -d 2 -p cbr -e 500 -c 2 -i 1 -a 2 -x {1.0 3.0 -1 ------- null}
+ -t 0.11 -s 1 -d 2 -p cbr -e 500 -c 2 -i 2 -a 2 -x {1.0 3.0 2 ------- null}
- -t 0.11 -s 1 -d 2 -p cbr -e 500 -c 2 -i 2 -a 2 -x {1.0 3.0 2 ------- null}
h -t 0.11 -s 1 -d 2 -p cbr -e 500 -c 2 -i 2 -a 2 -x {1.0 3.0 -1 ------- null}
r -t 0.114 -s 1 -d 2 -p cbr -e 500 -c 2 -i 0 -a 2 -x {1.0 3.0 0 ------- null}
+ -t 0.114 -s 2 -d 3 -p cbr -e 500 -c 2 -i 0 -a 2 -x {1.0 3.0 0 ------- null}
- -t 0.114 -s 2 -d 3 -p cbr -e 500 -c 2 -i 0 -a 2 -x {1.0 3.0 0 ------- null}
h -t 0.114 -s 2 -d 3 -p cbr -e 500 -c 2 -i 0 -a 2 -x {1.0 3.0 -1 ------- null}
+ -t 0.115 -s 1 -d 2 -p cbr -e 500 -c 2 -i 3 -a 2 -x {1.0 3.0 3 ------- null}
- -t 0.115 -s 1 -d 2 -p cbr -e 500 -c 2 -i 3 -a 2 -x {1.0 3.0 3 ------- null}
h -t 0.115 -s 1 -d 2 -p cbr -e 500 -c 2 -i 3 -a 2 -x {1.0 3.0 -1 ------- null}
r -t 0.119 -s 1 -d 2 -p cbr -e 500 -c 2 -i 1 -a 2 -x {1.0 3.0 1 ------- null}
+ -t 0.119 -s 2 -d 3 -p cbr -e 500 -c 2 -i 1 -a 2 -x {1.0 3.0 1 ------- null}
- -t 0.119 -s 2 -d 3 -p cbr -e 500 -c 2 -i 1 -a 2 -x {1.0 3.0 1 ------- null}
h -t 0.119 -s 2 -d 3 -p cbr -e 500 -c 2 -i 1 -a 2 -x {1.0 3.0 -1 ------- null}
+ -t 0.12 -s 1 -d 2 -p cbr -e 500 -c 2 -i 4 -a 2 -x {1.0 3.0 4 ------- null}
- -t 0.12 -s 1 -d 2 -p cbr -e 500 -c 2 -i 4 -a 2 -x {1.0 3.0 4 ------- null}
h -t 0.12 -s 1 -d 2 -p cbr -e 500 -c 2 -i 4 -a 2 -x {1.0 3.0 -1 ------- null}
r -t 0.124 -s 1 -d 2 -p cbr -e 500 -c 2 -i 2 -a 2 -x {1.0 3.0 2 ------- null}
+ -t 0.124 -s 2 -d 3 -p cbr -e 500 -c 2 -i 2 -a 2 -x {1.0 3.0 2 ------- null}
- -t 0.124 -s 2 -d 3 -p cbr -e 500 -c 2 -i 2 -a 2 -x {1.0 3.0 2 ------- null}
h -t 0.124 -s 2 -d 3 -p cbr -e 500 -c 2 -i 2 -a 2 -x {1.0 3.0 -1 ------- null}
+ -t 0.125 -s 1 -d 2 -p cbr -e 500 -c 2 -i 5 -a 2 -x {1.0 3.0 5 ------- null}
- -t 0.125 -s 1 -d 2 -p cbr -e 500 -c 2 -i 5 -a 2 -x {1.0 3.0 5 ------- null}
h -t 0.125 -s 1 -d 2 -p cbr -e 500 -c 2 -i 5 -a 2 -x {1.0 3.0 -1 ------- null}
r -t 0.128 -s 2 -d 3 -p cbr -e 500 -c 2 -i 0 -a 2 -x {1.0 3.0 0 ------- null}
r -t 0.129 -s 1 -d 2 -p cbr -e 500 -c 2 -i 3 -a 2 -x {1.0 3.0 3 ------- null}
+ -t 0.129 -s 2 -d 3 -p cbr -e 500 -c 2 -i 3 -a 2 -x {1.0 3.0 3 ------- null}
- -t 0.129 -s 2 -d 3 -p cbr -e 500 -c 2 -i 3 -a 2 -x {1.0 3.0 3 ------- null}
h -t 0.129 -s 2 -d 3 -p cbr -e 500 -c 2 -i 3 -a 2 -x {1.0 3.0 -1 ------- null}
+ -t 0.13 -s 1 -d 2 -p cbr -e 500 -c 2 -i 6 -a 2 -x {1.0 3.0 6 ------- null}
- -t 0.13 -s 1 -d 2 -p cbr -e 500 -c 2 -i 6 -a 2 -x {1.0 3.0 6 ------- null}
h -t 0.13 -s 1 -d 2 -p cbr -e 500 -c 2 -i 6 -a 2 -x {1.0 3.0 -1 ------- null}
r -t 0.133 -s 2 -d 3 -p cbr -e 500 -c 2 -i 1 -a 2 -x {1.0 3.0 1 ------- null}
r -t 0.134 -s 1 -d 2 -p cbr -e 500 -c 2 -i 4 -a 2 -x {1.0 3.0 4 ------- null}
+ -t 0.134 -s 2 -d 3 -p cbr -e 500 -c 2 -i 4 -a 2 -x {1.0 3.0 4 ------- null}
- -t 0.134 -s 2 -d 3 -p cbr -e 500 -c 2 -i 4 -a 2 -x {1.0 3.0 4 ------- null}
h -t 0.134 -s 2 -d 3 -p cbr -e 500 -c 2 -i 4 -a 2 -x {1.0 3.0 -1 ------- null}
+ -t 0.135 -s 1 -d 2 -p cbr -e 500 -c 2 -i 7 -a 2 -x {1.0 3.0 7 ------- null}
- -t 0.135 -s 1 -d 2 -p cbr -e 500 -c 2 -i 7 -a 2 -x {1.0 3.0 7 ------- null}
h -t 0.135 -s 1 -d 2 -p cbr -e 500 -c 2 -i 7 -a 2 -x {1.0 3.0 -1 ------- null}
r -t 0.138 -s 2 -d 3 -p cbr -e 500 -c 2 -i 2 -a 2 -x {1.0 3.0 2 ------- null}
r -t 0.139 -s 1 -d 2 -p cbr -e 500 -c 2 -i 5 -a 2 -x {1.0 3.0 5 ------- null}
+ -t 0.139 -s 2 -d 3 -p cbr -e 500 -c 2 -i 5 -a 2 -x {1.0 3.0 5 ------- null}
- -t 0.139 -s 2 -d 3 -p cbr -e 500 -c 2 -i 5 -a 2 -x {1.0 3.0 5 ------- null}
h -t 0.139 -s 2 -d 3 -p cbr -e 500 -c 2 -i 5 -a 2 -x {1.0 3.0 -1 ------- null}
+ -t 0.14 -s 1 -d 2 -p cbr -e 500 -c 2 -i 8 -a 2 -x {1.0 3.0 8 ------- null}
- -t 0.14 -s 1 -d 2 -p cbr -e 500 -c 2 -i 8 -a 2 -x {1.0 3.0 8 ------- null}
h -t 0.14 -s 1 -d 2 -p cbr -e 500 -c 2 -i 8 -a 2 -x {1.0 3.0 -1 ------- null}
r -t 0.143 -s 2 -d 3 -p cbr -e 500 -c 2 -i 3 -a 2 -x {1.0 3.0 3 ------- null}
r -t 0.144 -s 1 -d 2 -p cbr -e 500 -c 2 -i 6 -a 2 -x {1.0 3.0 6 ------- null}
+ -t 0.144 -s 2 -d 3 -p cbr -e 500 -c 2 -i 6 -a 2 -x {1.0 3.0 6 ------- null}
- -t 0.144 -s 2 -d 3 -p cbr -e 500 -c 2 -i 6 -a 2 -x {1.0 3.0 6 ------- null}
h -t 0.144 -s 2 -d 3 -p cbr -e 500 -c 2 -i 6 -a 2 -x {1.0 3.0 -1 ------- null}
+ -t 0.145 -s 1 -d 2 -p cbr -e 500 -c 2 -i 9 -a 2 -x {1.0 3.0 9 ------- null}
- -t 0.145 -s 1 -d 2 -p cbr -e 500 -c 2 -i 9 -a 2 -x {1.0 3.0 9 ------- null}
h -t 0.145 -s 1 -d 2 -p cbr -e 500 -c 2 -i 9 -a 2 -x {1.0 3.0 -1 ------- null}
r -t 0.148 -s 2 -d 3 -p cbr -e 500 -c 2 -i 4 -a 2 -x {1.0 3.0 4 ------- null}
r -t 0.149 -s 1 -d 2 -p cbr -e 500 -c 2 -i 7 -a 2 -x {1.0 3.0 7 ------- null}
+ -t 0.149 -s 2 -d 3 -p cbr -e 500 -c 2 -i 7 -a 2 -x {1.0 3.0 7 ------- null}
- -t 0.149 -s 2 -d 3 -p cbr -e 500 -c 2 -i 7 -a 2 -x {1.0 3.0 7 ------- null}
h -t 0.149 -s 2 -d 3 -p cbr -e 500 -c 2 -i 7 -a 2 -x {1.0 3.0 -1 ------- null}
+ -t 0.15 -s 1 -d 2 -p cbr -e 500 -c 2 -i 10 -a 2 -x {1.0 3.0 10 ------- null}
- -t 0.15 -s 1 -d 2 -p cbr -e 500 -c 2 -i 10 -a 2 -x {1.0 3.0 10 ------- null}
h -t 0.15 -s 1 -d 2 -p cbr -e 500 -c 2 -i 10 -a 2 -x {1.0 3.0 -1 ------- null}
r -t 0.153 -s 2 -d 3 -p cbr -e 500 -c 2 -i 5 -a 2 -x {1.0 3.0 5 ------- null}
r -t 0.154 -s 1 -d 2 -p cbr -e 500 -c 2 -i 8 -a 2 -x {1.0 3.0 8 ------- null}
+ -t 0.154 -s 2 -d 3 -p cbr -e 500 -c 2 -i 8 -a 2 -x {1.0 3.0 8 ------- null}
- -t 0.154 -s 2 -d 3 -p cbr -e 500 -c 2 -i 8 -a 2 -x {1.0 3.0 8 ------- null}
h -t 0.154 -s 2 -d 3 -p cbr -e 500 -c 2 -i 8 -a 2 -x {1.0 3.0 -1 ------- null}
+ -t 0.155 -s 1 -d 2 -p cbr -e 500 -c 2 -i 11 -a 2 -x {1.0 3.0 11 ------- null}
- -t 0.155 -s 1 -d 2 -p cbr -e 500 -c 2 -i 11 -a 2 -x {1.0 3.0 11 ------- null}
h -t 0.155 -s 1 -d 2 -p cbr -e 500 -c 2 -i 11 -a 2 -x {1.0 3.0 -1 ------- null}
r -t 0.158 -s 2 -d 3 -p cbr -e 500 -c 2 -i 6 -a 2 -x {1.0 3.0 6 ------- null}
r -t 0.159 -s 1 -d 2 -p cbr -e 500 -c 2 -i 9 -a 2 -x {1.0 3.0 9 ------- null}
+ -t 0.159 -s 2 -d 3 -p cbr -e 500 -c 2 -i 9 -a 2 -x {1.0 3.0 9 ------- null}
- -t 0.159 -s 2 -d 3 -p cbr -e 500 -c 2 -i 9 -a 2 -x {1.0 3.0 9 ------- null}
h -t 0.159 -s 2 -d 3 -p cbr -e 500 -c 2 -i 9 -a 2 -x {1.0 3.0 -1 ------- null}
+ -t 0.16 -s 1 -d 2 -p cbr -e 500 -c 2 -i 12 -a 2 -x {1.0 3.0 12 ------- null}
- -t 0.16 -s 1 -d 2 -p cbr -e 500 -c 2 -i 12 -a 2 -x {1.0 3.0 12 ------- null}
h -t 0.16 -s 1 -d 2 -p cbr -e 500 -c 2 -i 12 -a 2 -x {1.0 3.0 -1 ------- null}
r -t 0.163 -s 2 -d 3 -p cbr -e 500 -c 2 -i 7 -a 2 -x {1.0 3.0 7 ------- null}
r -t 0.164 -s 1 -d 2 -p cbr -e 500 -c 2 -i 10 -a 2 -x {1.0 3.0 10 ------- null}
+ -t 0.164 -s 2 -d 3 -p cbr -e 500 -c 2 -i 10 -a 2 -x {1.0 3.0 10 ------- null}
- -t 0.164 -s 2 -d 3 -p cbr -e 500 -c 2 -i 10 -a 2 -x {1.0 3.0 10 ------- null}
h -t 0.164 -s 2 -d 3 -p cbr -e 500 -c 2 -i 10 -a 2 -x {1.0 3.0 -1 ------- null}
+ -t 0.165 -s 1 -d 2 -p cbr -e 500 -c 2 -i 13 -a 2 -x {1.0 3.0 13 ------- null}
- -t 0.165 -s 1 -d 2 -p cbr -e 500 -c 2 -i 13 -a 2 -x {1.0 3.0 13 ------- null}
h -t 0.165 -s 1 -d 2 -p cbr -e 500 -c 2 -i 13 -a 2 -x {1.0 3.0 -1 ------- null}
r -t 0.168 -s 2 -d 3 -p cbr -e 500 -c 2 -i 8 -a 2 -x {1.0 3.0 8 ------- null}
r -t 0.169 -s 1 -d 2 -p cbr -e 500 -c 2 -i 11 -a 2 -x {1.0 3.0 11 ------- null}
+ -t 0.169 -s 2 -d 3 -p cbr -e 500 -c 2 -i 11 -a 2 -x {1.0 3.0 11 ------- null}
- -t 0.169 -s 2 -d 3 -p cbr -e 500 -c 2 -i 11 -a 2 -x {1.0 3.0 11 ------- null}
h -t 0.169 -s 2 -d 3 -p cbr -e 500 -c 2 -i 11 -a 2 -x {1.0 3.0 -1 ------- null}
+ -t 0.17 -s 1 -d 2 -p cbr -e 500 -c 2 -i 14 -a 2 -x {1.0 3.0 14 ------- null}
- -t 0.17 -s 1 -d 2 -p cbr -e 500 -c 2 -i 14 -a 2 -x {1.0 3.0 14 ------- null}
h -t 0.17 -s 1 -d 2 -p cbr -e 500 -c 2 -i 14 -a 2 -x {1.0 3.0 -1 ------- null}
r -t 0.173 -s 2 -d 3 -p cbr -e 500 -c 2 -i 9 -a 2 -x {1.0 3.0 9 ------- null}
r -t 0.174 -s 1 -d 2 -p cbr -e 500 -c 2 -i 12 -a 2 -x {1.0 3.0 12 ------- null}
+ -t 0.174 -s 2 -d 3 -p cbr -e 500 -c 2 -i 12 -a 2 -x {1.0 3.0 12 ------- null}
- -t 0.174 -s 2 -d 3 -p cbr -e 500 -c 2 -i 12 -a 2 -x {1.0 3.0 12 ------- null}
h -t 0.174 -s 2 -d 3 -p cbr -e 500 -c 2 -i 12 -a 2 -x {1.0 3.0 -1 ------- null}
+ -t 0.175 -s 1 -d 2 -p cbr -e 500 -c 2 -i 15 -a 2 -x {1.0 3.0 15 ------- null}
- -t 0.175 -s 1 -d 2 -p cbr -e 500 -c 2 -i 15 -a 2 -x {1.0 3.0 15 ------- null}
h -t 0.175 -s 1 -d 2 -p cbr -e 500 -c 2 -i 15 -a 2 -x {1.0 3.0 -1 ------- null}
r -t 0.178 -s 2 -d 3 -p cbr -e 500 -c 2 -i 10 -a 2 -x {1.0 3.0 10 ------- null}
r -t 0.179 -s 1 -d 2 -p cbr -e 500 -c 2 -i 13 -a 2 -x {1.0 3.0 13 ------- null}
+ -t 0.179 -s 2 -d 3 -p cbr -e 500 -c 2 -i 13 -a 2 -x {1.0 3.0 13 ------- null}
- -t 0.179 -s 2 -d 3 -p cbr -e 500 -c 2 -i 13 -a 2 -x {1.0 3.0 13 ------- null}
h -t 0.179 -s 2 -d 3 -p cbr -e 500 -c 2 -i 13 -a 2 -x {1.0 3.0 -1 ------- null}
+ -t 0.18 -s 1 -d 2 -p cbr -e 500 -c 2 -i 16 -a 2 -x {1.0 3.0 16 ------- null}
- -t 0.18 -s 1 -d 2 -p cbr -e 500 -c 2 -i 16 -a 2 -x {1.0 3.0 16 ------- null}
h -t 0.18 -s 1 -d 2 -p cbr -e 500 -c 2 -i 16 -a 2 -x {1.0 3.0 -1 ------- null}
r -t 0.183 -s 2 -d 3 -p cbr -e 500 -c 2 -i 11 -a 2 -x {1.0 3.0 11 ------- null}
r -t 0.184 -s 1 -d 2 -p cbr -e 500 -c 2 -i 14 -a 2 -x {1.0 3.0 14 ------- null}
+ -t 0.184 -s 2 -d 3 -p cbr -e 500 -c 2 -i 14 -a 2 -x {1.0 3.0 14 ------- null}
- -t 0.184 -s 2 -d 3 -p cbr -e 500 -c 2 -i 14 -a 2 -x {1.0 3.0 14 ------- null}
h -t 0.184 -s 2 -d 3 -p cbr -e 500 -c 2 -i 14 -a 2 -x {1.0 3.0 -1 ------- null}
+ -t 0.185 -s 1 -d 2 -p cbr -e 500 -c 2 -i 17 -a 2 -x {1.0 3.0 17 ------- null}
- -t 0.185 -s 1 -d 2 -p cbr -e 500 -c 2 -i 17 -a 2 -x {1.0 3.0 17 ------- null}
h -t 0.185 -s 1 -d 2 -p cbr -e 500 -c 2 -i 17 -a 2 -x {1.0 3.0 -1 ------- null}
r -t 0.188 -s 2 -d 3 -p cbr -e 500 -c 2 -i 12 -a 2 -x {1.0 3.0 12 ------- null}
r -t 0.189 -s 1 -d 2 -p cbr -e 500 -c 2 -i 15 -a 2 -x {1.0 3.0 15 ------- null}
+ -t 0.189 -s 2 -d 3 -p cbr -e 500 -c 2 -i 15 -a 2 -x {1.0 3.0 15 ------- null}
- -t 0.189 -s 2 -d 3 -p cbr -e 500 -c 2 -i 15 -a 2 -x {1.0 3.0 15 ------- null}
h -t 0.189 -s 2 -d 3 -p cbr -e 500 -c 2 -i 15 -a 2 -x {1.0 3.0 -1 ------- null}
+ -t 0.19 -s 1 -d 2 -p cbr -e 500 -c 2 -i 18 -a 2 -x {1.0 3.0 18 ------- null}
- -t 0.19 -s 1 -d 2 -p cbr -e 500 -c 2 -i 18 -a 2 -x {1.0 3.0 18 ------- null}
h -t 0.19 -s 1 -d 2 -p cbr -e 500 -c 2 -i 18 -a 2 -x {1.0 3.0 -1 ------- null}
r -t 0.193 -s 2 -d 3 -p cbr -e 500 -c 2 -i 13 -a 2 -x {1.0 3.0 13 ------- null}
r -t 0.194 -s 1 -d 2 -p cbr -e 500 -c 2 -i 16 -a 2 -x {1.0 3.0 16 ------- null}
+ -t 0.194 -s 2 -d 3 -p cbr -e 500 -c 2 -i 16 -a 2 -x {1.0 3.0 16 ------- null}
- -t 0.194 -s 2 -d 3 -p cbr -e 500 -c 2 -i 16 -a 2 -x {1.0 3.0 16 ------- null}
h -t 0.194 -s 2 -d 3 -p cbr -e 500 -c 2 -i 16 -a 2 -x {1.0 3.0 -1 ------- null}
+ -t 0.195 -s 1 -d 2 -p cbr -e 500 -c 2 -i 19 -a 2 -x {1.0 3.0 19 ------- null}
- -t 0.195 -s 1 -d 2 -p cbr -e 500 -c 2 -i 19 -a 2 -x {1.0 3.0 19 ------- null}
h -t 0.195 -s 1 -d 2 -p cbr -e 500 -c 2 -i 19 -a 2 -x {1.0 3.0 -1 ------- null}
r -t 0.198 -s 2 -d 3 -p cbr -e 500 -c 2 -i 14 -a 2 -x {1.0 3.0 14 ------- null}
r -t 0.199 -s 1 -d 2 -p cbr -e 500 -c 2 -i 17 -a 2 -x {1.0 3.0 17 ------- null}
+ -t 0.199 -s 2 -d 3 -p cbr -e 500 -c 2 -i 17 -a 2 -x {1.0 3.0 17 ------- null}
- -t 0.199 -s 2 -d 3 -p cbr -e 500 -c 2 -i 17 -a 2 -x {1.0 3.0 17 ------- null}
h -t 0.199 -s 2 -d 3 -p cbr -e 500 -c 2 -i 17 -a 2 -x {1.0 3.0 -1 ------- null}
+ -t 0.2 -s 1 -d 2 -p cbr -e 500 -c 2 -i 20 -a 2 -x {1.0 3.0 20 ------- null}
- -t 0.2 -s 1 -d 2 -p cbr -e 500 -c 2 -i 20 -a 2 -x {1.0 3.0 20 ------- null}
h -t 0.2 -s 1 -d 2 -p cbr -e 500 -c 2 -i 20 -a 2 -x {1.0 3.0 -1 ------- null}
r -t 0.203 -s 2 -d 3 -p cbr -e 500 -c 2 -i 15 -a 2 -x {1.0 3.0 15 ------- null}
r -t 0.204 -s 1 -d 2 -p cbr -e 500 -c 2 -i 18 -a 2 -x {1.0 3.0 18 ------- null}
+ -t 0.204 -s 2 -d 3 -p cbr -e 500 -c 2 -i 18 -a 2 -x {1.0 3.0 18 ------- null}
- -t 0.204 -s 2 -d 3 -p cbr -e 500 -c 2 -i 18 -a 2 -x {1.0 3.0 18 ------- null}
h -t 0.204 -s 2 -d 3 -p cbr -e 500 -c 2 -i 18 -a 2 -x {1.0 3.0 -1 ------- null}
+ -t 0.205 -s 1 -d 2 -p cbr -e 500 -c 2 -i 21 -a 2 -x {1.0 3.0 21 ------- null}
- -t 0.205 -s 1 -d 2 -p cbr -e 500 -c 2 -i 21 -a 2 -x {1.0 3.0 21 ------- null}
h -t 0.205 -s 1 -d 2 -p cbr -e 500 -c 2 -i 21 -a 2 -x {1.0 3.0 -1 ------- null}
r -t 0.208 -s 2 -d 3 -p cbr -e 500 -c 2 -i 16 -a 2 -x {1.0 3.0 16 ------- null}
r -t 0.209 -s 1 -d 2 -p cbr -e 500 -c 2 -i 19 -a 2 -x {1.0 3.0 19 ------- null}
+ -t 0.209 -s 2 -d 3 -p cbr -e 500 -c 2 -i 19 -a 2 -x {1.0 3.0 19 ------- null}
- -t 0.209 -s 2 -d 3 -p cbr -e 500 -c 2 -i 19 -a 2 -x {1.0 3.0 19 ------- null}
h -t 0.209 -s 2 -d 3 -p cbr -e 500 -c 2 -i 19 -a 2 -x {1.0 3.0 -1 ------- null}
+ -t 0.21 -s 1 -d 2 -p cbr -e 500 -c 2 -i 22 -a 2 -x {1.0 3.0 22 ------- null}
- -t 0.21 -s 1 -d 2 -p cbr -e 500 -c 2 -i 22 -a 2 -x {1.0 3.0 22 ------- null}
h -t 0.21 -s 1 -d 2 -p cbr -e 500 -c 2 -i 22 -a 2 -x {1.0 3.0 -1 ------- null}
r -t 0.213 -s 2 -d 3 -p cbr -e 500 -c 2 -i 17 -a 2 -x {1.0 3.0 17 ------- null}
r -t 0.214 -s 1 -d 2 -p cbr -e 500 -c 2 -i 20 -a 2 -x {1.0 3.0 20 ------- null}
+ -t 0.214 -s 2 -d 3 -p cbr -e 500 -c 2 -i 20 -a 2 -x {1.0 3.0 20 ------- null}
- -t 0.214 -s 2 -d 3 -p cbr -e 500 -c 2 -i 20 -a 2 -x {1.0 3.0 20 ------- null}
h -t 0.214 -s 2 -d 3 -p cbr -e 500 -c 2 -i 20 -a 2 -x {1.0 3.0 -1 ------- null}
+ -t 0.215 -s 1 -d 2 -p cbr -e 500 -c 2 -i 23 -a 2 -x {1.0 3.0 23 ------- null}
- -t 0.215 -s 1 -d 2 -p cbr -e 500 -c 2 -i 23 -a 2 -x {1.0 3.0 23 ------- null}
h -t 0.215 -s 1 -d 2 -p cbr -e 500 -c 2 -i 23 -a 2 -x {1.0 3.0 -1 ------- null}
r -t 0.218 -s 2 -d 3 -p cbr -e 500 -c 2 -i 18 -a 2 -x {1.0 3.0 18 ------- null}
r -t 0.219 -s 1 -d 2 -p cbr -e 500 -c 2 -i 21 -a 2 -x {1.0 3.0 21 ------- null}
+ -t 0.219 -s 2 -d 3 -p cbr -e 500 -c 2 -i 21 -a 2 -x {1.0 3.0 21 ------- null}
- -t 0.219 -s 2 -d 3 -p cbr -e 500 -c 2 -i 21 -a 2 -x {1.0 3.0 21 ------- null}
h -t 0.219 -s 2 -d 3 -p cbr -e 500 -c 2 -i 21 -a 2 -x {1.0 3.0 -1 ------- null}
+ -t 0.22 -s 1 -d 2 -p cbr -e 500 -c 2 -i 24 -a 2 -x {1.0 3.0 24 ------- null}
- -t 0.22 -s 1 -d 2 -p cbr -e 500 -c 2 -i 24 -a 2 -x {1.0 3.0 24 ------- null}
h -t 0.22 -s 1 -d 2 -p cbr -e 500 -c 2 -i 24 -a 2 -x {1.0 3.0 -1 ------- null}
r -t 0.223 -s 2 -d 3 -p cbr -e 500 -c 2 -i 19 -a 2 -x {1.0 3.0 19 ------- null}
r -t 0.224 -s 1 -d 2 -p cbr -e 500 -c 2 -i 22 -a 2 -x {1.0 3.0 22 ------- null}
+ -t 0.224 -s 2 -d 3 -p cbr -e 500 -c 2 -i 22 -a 2 -x {1.0 3.0 22 ------- null}
- -t 0.224 -s 2 -d 3 -p cbr -e 500 -c 2 -i 22 -a 2 -x {1.0 3.0 22 ------- null}
h -t 0.224 -s 2 -d 3 -p cbr -e 500 -c 2 -i 22 -a 2 -x {1.0 3.0 -1 ------- null}
+ -t 0.225 -s 1 -d 2 -p cbr -e 500 -c 2 -i 25 -a 2 -x {1.0 3.0 25 ------- null}
- -t 0.225 -s 1 -d 2 -p cbr -e 500 -c 2 -i 25 -a 2 -x {1.0 3.0 25 ------- null}
h -t 0.225 -s 1 -d 2 -p cbr -e 500 -c 2 -i 25 -a 2 -x {1.0 3.0 -1 ------- null}
r -t 0.228 -s 2 -d 3 -p cbr -e 500 -c 2 -i 20 -a 2 -x {1.0 3.0 20 ------- null}
r -t 0.229 -s 1 -d 2 -p cbr -e 500 -c 2 -i 23 -a 2 -x {1.0 3.0 23 ------- null}
+ -t 0.229 -s 2 -d 3 -p cbr -e 500 -c 2 -i 23 -a 2 -x {1.0 3.0 23 ------- null}
- -t 0.229 -s 2 -d 3 -p cbr -e 500 -c 2 -i 23 -a 2 -x {1.0 3.0 23 ------- null}
h -t 0.229 -s 2 -d 3 -p cbr -e 500 -c 2 -i 23 -a 2 -x {1.0 3.0 -1 ------- null}
+ -t 0.23 -s 1 -d 2 -p cbr -e 500 -c 2 -i 26 -a 2 -x {1.0 3.0 26 ------- null}
- -t 0.23 -s 1 -d 2 -p cbr -e 500 -c 2 -i 26 -a 2 -x {1.0 3.0 26 ------- null}
h -t 0.23 -s 1 -d 2 -p cbr -e 500 -c 2 -i 26 -a 2 -x {1.0 3.0 -1 ------- null}
r -t 0.233 -s 2 -d 3 -p cbr -e 500 -c 2 -i 21 -a 2 -x {1.0 3.0 21 ------- null}
r -t 0.234 -s 1 -d 2 -p cbr -e 500 -c 2 -i 24 -a 2 -x {1.0 3.0 24 ------- null}
+ -t 0.234 -s 2 -d 3 -p cbr -e 500 -c 2 -i 24 -a 2 -x {1.0 3.0 24 ------- null}
- -t 0.234 -s 2 -d 3 -p cbr -e 500 -c 2 -i 24 -a 2 -x {1.0 3.0 24 ------- null}
h -t 0.234 -s 2 -d 3 -p cbr -e 500 -c 2 -i 24 -a 2 -x {1.0 3.0 -1 ------- null}
+ -t 0.235 -s 1 -d 2 -p cbr -e 500 -c 2 -i 27 -a 2 -x {1.0 3.0 27 ------- null}
- -t 0.235 -s 1 -d 2 -p cbr -e 500 -c 2 -i 27 -a 2 -x {1.0 3.0 27 ------- null}
h -t 0.235 -s 1 -d 2 -p cbr -e 500 -c 2 -i 27 -a 2 -x {1.0 3.0 -1 ------- null}
r -t 0.238 -s 2 -d 3 -p cbr -e 500 -c 2 -i 22 -a 2 -x {1.0 3.0 22 ------- null}
r -t 0.239 -s 1 -d 2 -p cbr -e 500 -c 2 -i 25 -a 2 -x {1.0 3.0 25 ------- null}
+ -t 0.239 -s 2 -d 3 -p cbr -e 500 -c 2 -i 25 -a 2 -x {1.0 3.0 25 ------- null}
- -t 0.239 -s 2 -d 3 -p cbr -e 500 -c 2 -i 25 -a 2 -x {1.0 3.0 25 ------- null}
h -t 0.239 -s 2 -d 3 -p cbr -e 500 -c 2 -i 25 -a 2 -x {1.0 3.0 -1 ------- null}
+ -t 0.24 -s 1 -d 2 -p cbr -e 500 -c 2 -i 28 -a 2 -x {1.0 3.0 28 ------- null}
- -t 0.24 -s 1 -d 2 -p cbr -e 500 -c 2 -i 28 -a 2 -x {1.0 3.0 28 ------- null}
h -t 0.24 -s 1 -d 2 -p cbr -e 500 -c 2 -i 28 -a 2 -x {1.0 3.0 -1 ------- null}
r -t 0.243 -s 2 -d 3 -p cbr -e 500 -c 2 -i 23 -a 2 -x {1.0 3.0 23 ------- null}
r -t 0.244 -s 1 -d 2 -p cbr -e 500 -c 2 -i 26 -a 2 -x {1.0 3.0 26 ------- null}
+ -t 0.244 -s 2 -d 3 -p cbr -e 500 -c 2 -i 26 -a 2 -x {1.0 3.0 26 ------- null}
- -t 0.244 -s 2 -d 3 -p cbr -e 500 -c 2 -i 26 -a 2 -x {1.0 3.0 26 ------- null}
h -t 0.244 -s 2 -d 3 -p cbr -e 500 -c 2 -i 26 -a 2 -x {1.0 3.0 -1 ------- null}
+ -t 0.245 -s 1 -d 2 -p cbr -e 500 -c 2 -i 29 -a 2 -x {1.0 3.0 29 ------- null}
- -t 0.245 -s 1 -d 2 -p cbr -e 500 -c 2 -i 29 -a 2 -x {1.0 3.0 29 ------- null}
h -t 0.245 -s 1 -d 2 -p cbr -e 500 -c 2 -i 29 -a 2 -x {1.0 3.0 -1 ------- null}
r -t 0.248 -s 2 -d 3 -p cbr -e 500 -c 2 -i 24 -a 2 -x {1.0 3.0 24 ------- null}
r -t 0.249 -s 1 -d 2 -p cbr -e 500 -c 2 -i 27 -a 2 -x {1.0 3.0 27 ------- null}
+ -t 0.249 -s 2 -d 3 -p cbr -e 500 -c 2 -i 27 -a 2 -x {1.0 3.0 27 ------- null}
- -t 0.249 -s 2 -d 3 -p cbr -e 500 -c 2 -i 27 -a 2 -x {1.0 3.0 27 ------- null}
h -t 0.249 -s 2 -d 3 -p cbr -e 500 -c 2 -i 27 -a 2 -x {1.0 3.0 -1 ------- null}
+ -t 0.25 -s 1 -d 2 -p cbr -e 500 -c 2 -i 30 -a 2 -x {1.0 3.0 30 ------- null}
- -t 0.25 -s 1 -d 2 -p cbr -e 500 -c 2 -i 30 -a 2 -x {1.0 3.0 30 ------- null}
h -t 0.25 -s 1 -d 2 -p cbr -e 500 -c 2 -i 30 -a 2 -x {1.0 3.0 -1 ------- null}
r -t 0.253 -s 2 -d 3 -p cbr -e 500 -c 2 -i 25 -a 2 -x {1.0 3.0 25 ------- null}
r -t 0.254 -s 1 -d 2 -p cbr -e 500 -c 2 -i 28 -a 2 -x {1.0 3.0 28 ------- null}
+ -t 0.254 -s 2 -d 3 -p cbr -e 500 -c 2 -i 28 -a 2 -x {1.0 3.0 28 ------- null}
- -t 0.254 -s 2 -d 3 -p cbr -e 500 -c 2 -i 28 -a 2 -x {1.0 3.0 28 ------- null}
h -t 0.254 -s 2 -d 3 -p cbr -e 500 -c 2 -i 28 -a 2 -x {1.0 3.0 -1 ------- null}
+ -t 0.255 -s 1 -d 2 -p cbr -e 500 -c 2 -i 31 -a 2 -x {1.0 3.0 31 ------- null}
- -t 0.255 -s 1 -d 2 -p cbr -e 500 -c 2 -i 31 -a 2 -x {1.0 3.0 31 ------- null}
h -t 0.255 -s 1 -d 2 -p cbr -e 500 -c 2 -i 31 -a 2 -x {1.0 3.0 -1 ------- null}
r -t 0.258 -s 2 -d 3 -p cbr -e 500 -c 2 -i 26 -a 2 -x {1.0 3.0 26 ------- null}
r -t 0.259 -s 1 -d 2 -p cbr -e 500 -c 2 -i 29 -a 2 -x {1.0 3.0 29 ------- null}
+ -t 0.259 -s 2 -d 3 -p cbr -e 500 -c 2 -i 29 -a 2 -x {1.0 3.0 29 ------- null}
- -t 0.259 -s 2 -d 3 -p cbr -e 500 -c 2 -i 29 -a 2 -x {1.0 3.0 29 ------- null}
h -t 0.259 -s 2 -d 3 -p cbr -e 500 -c 2 -i 29 -a 2 -x {1.0 3.0 -1 ------- null}
+ -t 0.26 -s 1 -d 2 -p cbr -e 500 -c 2 -i 32 -a 2 -x {1.0 3.0 32 ------- null}
- -t 0.26 -s 1 -d 2 -p cbr -e 500 -c 2 -i 32 -a 2 -x {1.0 3.0 32 ------- null}
h -t 0.26 -s 1 -d 2 -p cbr -e 500 -c 2 -i 32 -a 2 -x {1.0 3.0 -1 ------- null}
r -t 0.263 -s 2 -d 3 -p cbr -e 500 -c 2 -i 27 -a 2 -x {1.0 3.0 27 ------- null}
r -t 0.264 -s 1 -d 2 -p cbr -e 500 -c 2 -i 30 -a 2 -x {1.0 3.0 30 ------- null}
+ -t 0.264 -s 2 -d 3 -p cbr -e 500 -c 2 -i 30 -a 2 -x {1.0 3.0 30 ------- null}
- -t 0.264 -s 2 -d 3 -p cbr -e 500 -c 2 -i 30 -a 2 -x {1.0 3.0 30 ------- null}
h -t 0.264 -s 2 -d 3 -p cbr -e 500 -c 2 -i 30 -a 2 -x {1.0 3.0 -1 ------- null}
+ -t 0.265 -s 1 -d 2 -p cbr -e 500 -c 2 -i 33 -a 2 -x {1.0 3.0 33 ------- null}
- -t 0.265 -s 1 -d 2 -p cbr -e 500 -c 2 -i 33 -a 2 -x {1.0 3.0 33 ------- null}
h -t 0.265 -s 1 -d 2 -p cbr -e 500 -c 2 -i 33 -a 2 -x {1.0 3.0 -1 ------- null}
r -t 0.268 -s 2 -d 3 -p cbr -e 500 -c 2 -i 28 -a 2 -x {1.0 3.0 28 ------- null}
r -t 0.269 -s 1 -d 2 -p cbr -e 500 -c 2 -i 31 -a 2 -x {1.0 3.0 31 ------- null}
+ -t 0.269 -s 2 -d 3 -p cbr -e 500 -c 2 -i 31 -a 2 -x {1.0 3.0 31 ------- null}
- -t 0.269 -s 2 -d 3 -p cbr -e 500 -c 2 -i 31 -a 2 -x {1.0 3.0 31 ------- null}
h -t 0.269 -s 2 -d 3 -p cbr -e 500 -c 2 -i 31 -a 2 -x {1.0 3.0 -1 ------- null}
+ -t 0.27 -s 1 -d 2 -p cbr -e 500 -c 2 -i 34 -a 2 -x {1.0 3.0 34 ------- null}
- -t 0.27 -s 1 -d 2 -p cbr -e 500 -c 2 -i 34 -a 2 -x {1.0 3.0 34 ------- null}
h -t 0.27 -s 1 -d 2 -p cbr -e 500 -c 2 -i 34 -a 2 -x {1.0 3.0 -1 ------- null}
r -t 0.273 -s 2 -d 3 -p cbr -e 500 -c 2 -i 29 -a 2 -x {1.0 3.0 29 ------- null}
r -t 0.274 -s 1 -d 2 -p cbr -e 500 -c 2 -i 32 -a 2 -x {1.0 3.0 32 ------- null}
+ -t 0.274 -s 2 -d 3 -p cbr -e 500 -c 2 -i 32 -a 2 -x {1.0 3.0 32 ------- null}
- -t 0.274 -s 2 -d 3 -p cbr -e 500 -c 2 -i 32 -a 2 -x {1.0 3.0 32 ------- null}
h -t 0.274 -s 2 -d 3 -p cbr -e 500 -c 2 -i 32 -a 2 -x {1.0 3.0 -1 ------- null}
+ -t 0.275 -s 1 -d 2 -p cbr -e 500 -c 2 -i 35 -a 2 -x {1.0 3.0 35 ------- null}
- -t 0.275 -s 1 -d 2 -p cbr -e 500 -c 2 -i 35 -a 2 -x {1.0 3.0 35 ------- null}
h -t 0.275 -s 1 -d 2 -p cbr -e 500 -c 2 -i 35 -a 2 -x {1.0 3.0 -1 ------- null}
r -t 0.278 -s 2 -d 3 -p cbr -e 500 -c 2 -i 30 -a 2 -x {1.0 3.0 30 ------- null}
r -t 0.279 -s 1 -d 2 -p cbr -e 500 -c 2 -i 33 -a 2 -x {1.0 3.0 33 ------- null}
+ -t 0.279 -s 2 -d 3 -p cbr -e 500 -c 2 -i 33 -a 2 -x {1.0 3.0 33 ------- null}
- -t 0.279 -s 2 -d 3 -p cbr -e 500 -c 2 -i 33 -a 2 -x {1.0 3.0 33 ------- null}
h -t 0.279 -s 2 -d 3 -p cbr -e 500 -c 2 -i 33 -a 2 -x {1.0 3.0 -1 ------- null}
+ -t 0.28 -s 1 -d 2 -p cbr -e 500 -c 2 -i 36 -a 2 -x {1.0 3.0 36 ------- null}
- -t 0.28 -s 1 -d 2 -p cbr -e 500 -c 2 -i 36 -a 2 -x {1.0 3.0 36 ------- null}
h -t 0.28 -s 1 -d 2 -p cbr -e 500 -c 2 -i 36 -a 2 -x {1.0 3.0 -1 ------- null}
r -t 0.283 -s 2 -d 3 -p cbr -e 500 -c 2 -i 31 -a 2 -x {1.0 3.0 31 ------- null}
r -t 0.284 -s 1 -d 2 -p cbr -e 500 -c 2 -i 34 -a 2 -x {1.0 3.0 34 ------- null}
+ -t 0.284 -s 2 -d 3 -p cbr -e 500 -c 2 -i 34 -a 2 -x {1.0 3.0 34 ------- null}
- -t 0.284 -s 2 -d 3 -p cbr -e 500 -c 2 -i 34 -a 2 -x {1.0 3.0 34 ------- null}
h -t 0.284 -s 2 -d 3 -p cbr -e 500 -c 2 -i 34 -a 2 -x {1.0 3.0 -1 ------- null}
+ -t 0.285 -s 1 -d 2 -p cbr -e 500 -c 2 -i 37 -a 2 -x {1.0 3.0 37 ------- null}
- -t 0.285 -s 1 -d 2 -p cbr -e 500 -c 2 -i 37 -a 2 -x {1.0 3.0 37 ------- null}
h -t 0.285 -s 1 -d 2 -p cbr -e 500 -c 2 -i 37 -a 2 -x {1.0 3.0 -1 ------- null}
r -t 0.288 -s 2 -d 3 -p cbr -e 500 -c 2 -i 32 -a 2 -x {1.0 3.0 32 ------- null}
r -t 0.289 -s 1 -d 2 -p cbr -e 500 -c 2 -i 35 -a 2 -x {1.0 3.0 35 ------- null}
+ -t 0.289 -s 2 -d 3 -p cbr -e 500 -c 2 -i 35 -a 2 -x {1.0 3.0 35 ------- null}
- -t 0.289 -s 2 -d 3 -p cbr -e 500 -c 2 -i 35 -a 2 -x {1.0 3.0 35 ------- null}
h -t 0.289 -s 2 -d 3 -p cbr -e 500 -c 2 -i 35 -a 2 -x {1.0 3.0 -1 ------- null}
+ -t 0.29 -s 1 -d 2 -p cbr -e 500 -c 2 -i 38 -a 2 -x {1.0 3.0 38 ------- null}
- -t 0.29 -s 1 -d 2 -p cbr -e 500 -c 2 -i 38 -a 2 -x {1.0 3.0 38 ------- null}
h -t 0.29 -s 1 -d 2 -p cbr -e 500 -c 2 -i 38 -a 2 -x {1.0 3.0 -1 ------- null}
r -t 0.293 -s 2 -d 3 -p cbr -e 500 -c 2 -i 33 -a 2 -x {1.0 3.0 33 ------- null}
r -t 0.294 -s 1 -d 2 -p cbr -e 500 -c 2 -i 36 -a 2 -x {1.0 3.0 36 ------- null}
+ -t 0.294 -s 2 -d 3 -p cbr -e 500 -c 2 -i 36 -a 2 -x {1.0 3.0 36 ------- null}
- -t 0.294 -s 2 -d 3 -p cbr -e 500 -c 2 -i 36 -a 2 -x {1.0 3.0 36 ------- null}
h -t 0.294 -s 2 -d 3 -p cbr -e 500 -c 2 -i 36 -a 2 -x {1.0 3.0 -1 ------- null}
+ -t 0.295 -s 1 -d 2 -p cbr -e 500 -c 2 -i 39 -a 2 -x {1.0 3.0 39 ------- null}
- -t 0.295 -s 1 -d 2 -p cbr -e 500 -c 2 -i 39 -a 2 -x {1.0 3.0 39 ------- null}
h -t 0.295 -s 1 -d 2 -p cbr -e 500 -c 2 -i 39 -a 2 -x {1.0 3.0 -1 ------- null}
r -t 0.298 -s 2 -d 3 -p cbr -e 500 -c 2 -i 34 -a 2 -x {1.0 3.0 34 ------- null}
r -t 0.299 -s 1 -d 2 -p cbr -e 500 -c 2 -i 37 -a 2 -x {1.0 3.0 37 ------- null}
+ -t 0.299 -s 2 -d 3 -p cbr -e 500 -c 2 -i 37 -a 2 -x {1.0 3.0 37 ------- null}
- -t 0.299 -s 2 -d 3 -p cbr -e 500 -c 2 -i 37 -a 2 -x {1.0 3.0 37 ------- null}
h -t 0.299 -s 2 -d 3 -p cbr -e 500 -c 2 -i 37 -a 2 -x {1.0 3.0 -1 ------- null}
+ -t 0.3 -s 1 -d 2 -p cbr -e 500 -c 2 -i 40 -a 2 -x {1.0 3.0 40 ------- null}
- -t 0.3 -s 1 -d 2 -p cbr -e 500 -c 2 -i 40 -a 2 -x {1.0 3.0 40 ------- null}
h -t 0.3 -s 1 -d 2 -p cbr -e 500 -c 2 -i 40 -a 2 -x {1.0 3.0 -1 ------- null}
r -t 0.303 -s 2 -d 3 -p cbr -e 500 -c 2 -i 35 -a 2 -x {1.0 3.0 35 ------- null}
r -t 0.304 -s 1 -d 2 -p cbr -e 500 -c 2 -i 38 -a 2 -x {1.0 3.0 38 ------- null}
+ -t 0.304 -s 2 -d 3 -p cbr -e 500 -c 2 -i 38 -a 2 -x {1.0 3.0 38 ------- null}
- -t 0.304 -s 2 -d 3 -p cbr -e 500 -c 2 -i 38 -a 2 -x {1.0 3.0 38 ------- null}
h -t 0.304 -s 2 -d 3 -p cbr -e 500 -c 2 -i 38 -a 2 -x {1.0 3.0 -1 ------- null}
+ -t 0.305 -s 1 -d 2 -p cbr -e 500 -c 2 -i 41 -a 2 -x {1.0 3.0 41 ------- null}
- -t 0.305 -s 1 -d 2 -p cbr -e 500 -c 2 -i 41 -a 2 -x {1.0 3.0 41 ------- null}
h -t 0.305 -s 1 -d 2 -p cbr -e 500 -c 2 -i 41 -a 2 -x {1.0 3.0 -1 ------- null}
r -t 0.308 -s 2 -d 3 -p cbr -e 500 -c 2 -i 36 -a 2 -x {1.0 3.0 36 ------- null}
r -t 0.309 -s 1 -d 2 -p cbr -e 500 -c 2 -i 39 -a 2 -x {1.0 3.0 39 ------- null}
+ -t 0.309 -s 2 -d 3 -p cbr -e 500 -c 2 -i 39 -a 2 -x {1.0 3.0 39 ------- null}
- -t 0.309 -s 2 -d 3 -p cbr -e 500 -c 2 -i 39 -a 2 -x {1.0 3.0 39 ------- null}
h -t 0.309 -s 2 -d 3 -p cbr -e 500 -c 2 -i 39 -a 2 -x {1.0 3.0 -1 ------- null}
+ -t 0.31 -s 1 -d 2 -p cbr -e 500 -c 2 -i 42 -a 2 -x {1.0 3.0 42 ------- null}
- -t 0.31 -s 1 -d 2 -p cbr -e 500 -c 2 -i 42 -a 2 -x {1.0 3.0 42 ------- null}
h -t 0.31 -s 1 -d 2 -p cbr -e 500 -c 2 -i 42 -a 2 -x {1.0 3.0 -1 ------- null}
r -t 0.313 -s 2 -d 3 -p cbr -e 500 -c 2 -i 37 -a 2 -x {1.0 3.0 37 ------- null}
r -t 0.314 -s 1 -d 2 -p cbr -e 500 -c 2 -i 40 -a 2 -x {1.0 3.0 40 ------- null}
+ -t 0.314 -s 2 -d 3 -p cbr -e 500 -c 2 -i 40 -a 2 -x {1.0 3.0 40 ------- null}
- -t 0.314 -s 2 -d 3 -p cbr -e 500 -c 2 -i 40 -a 2 -x {1.0 3.0 40 ------- null}
h -t 0.314 -s 2 -d 3 -p cbr -e 500 -c 2 -i 40 -a 2 -x {1.0 3.0 -1 ------- null}
+ -t 0.315 -s 1 -d 2 -p cbr -e 500 -c 2 -i 43 -a 2 -x {1.0 3.0 43 ------- null}
- -t 0.315 -s 1 -d 2 -p cbr -e 500 -c 2 -i 43 -a 2 -x {1.0 3.0 43 ------- null}
h -t 0.315 -s 1 -d 2 -p cbr -e 500 -c 2 -i 43 -a 2 -x {1.0 3.0 -1 ------- null}
r -t 0.318 -s 2 -d 3 -p cbr -e 500 -c 2 -i 38 -a 2 -x {1.0 3.0 38 ------- null}
r -t 0.319 -s 1 -d 2 -p cbr -e 500 -c 2 -i 41 -a 2 -x {1.0 3.0 41 ------- null}
+ -t 0.319 -s 2 -d 3 -p cbr -e 500 -c 2 -i 41 -a 2 -x {1.0 3.0 41 ------- null}
- -t 0.319 -s 2 -d 3 -p cbr -e 500 -c 2 -i 41 -a 2 -x {1.0 3.0 41 ------- null}
h -t 0.319 -s 2 -d 3 -p cbr -e 500 -c 2 -i 41 -a 2 -x {1.0 3.0 -1 ------- null}
+ -t 0.32 -s 1 -d 2 -p cbr -e 500 -c 2 -i 44 -a 2 -x {1.0 3.0 44 ------- null}
- -t 0.32 -s 1 -d 2 -p cbr -e 500 -c 2 -i 44 -a 2 -x {1.0 3.0 44 ------- null}
h -t 0.32 -s 1 -d 2 -p cbr -e 500 -c 2 -i 44 -a 2 -x {1.0 3.0 -1 ------- null}
r -t 0.323 -s 2 -d 3 -p cbr -e 500 -c 2 -i 39 -a 2 -x {1.0 3.0 39 ------- null}
r -t 0.324 -s 1 -d 2 -p cbr -e 500 -c 2 -i 42 -a 2 -x {1.0 3.0 42 ------- null}
+ -t 0.324 -s 2 -d 3 -p cbr -e 500 -c 2 -i 42 -a 2 -x {1.0 3.0 42 ------- null}
- -t 0.324 -s 2 -d 3 -p cbr -e 500 -c 2 -i 42 -a 2 -x {1.0 3.0 42 ------- null}
h -t 0.324 -s 2 -d 3 -p cbr -e 500 -c 2 -i 42 -a 2 -x {1.0 3.0 -1 ------- null}
+ -t 0.325 -s 1 -d 2 -p cbr -e 500 -c 2 -i 45 -a 2 -x {1.0 3.0 45 ------- null}
- -t 0.325 -s 1 -d 2 -p cbr -e 500 -c 2 -i 45 -a 2 -x {1.0 3.0 45 ------- null}
h -t 0.325 -s 1 -d 2 -p cbr -e 500 -c 2 -i 45 -a 2 -x {1.0 3.0 -1 ------- null}
r -t 0.328 -s 2 -d 3 -p cbr -e 500 -c 2 -i 40 -a 2 -x {1.0 3.0 40 ------- null}
r -t 0.329 -s 1 -d 2 -p cbr -e 500 -c 2 -i 43 -a 2 -x {1.0 3.0 43 ------- null}
+ -t 0.329 -s 2 -d 3 -p cbr -e 500 -c 2 -i 43 -a 2 -x {1.0 3.0 43 ------- null}
- -t 0.329 -s 2 -d 3 -p cbr -e 500 -c 2 -i 43 -a 2 -x {1.0 3.0 43 ------- null}
h -t 0.329 -s 2 -d 3 -p cbr -e 500 -c 2 -i 43 -a 2 -x {1.0 3.0 -1 ------- null}
+ -t 0.33 -s 1 -d 2 -p cbr -e 500 -c 2 -i 46 -a 2 -x {1.0 3.0 46 ------- null}
- -t 0.33 -s 1 -d 2 -p cbr -e 500 -c 2 -i 46 -a 2 -x {1.0 3.0 46 ------- null}
h -t 0.33 -s 1 -d 2 -p cbr -e 500 -c 2 -i 46 -a 2 -x {1.0 3.0 -1 ------- null}
r -t 0.333 -s 2 -d 3 -p cbr -e 500 -c 2 -i 41 -a 2 -x {1.0 3.0 41 ------- null}
r -t 0.334 -s 1 -d 2 -p cbr -e 500 -c 2 -i 44 -a 2 -x {1.0 3.0 44 ------- null}
+ -t 0.334 -s 2 -d 3 -p cbr -e 500 -c 2 -i 44 -a 2 -x {1.0 3.0 44 ------- null}
- -t 0.334 -s 2 -d 3 -p cbr -e 500 -c 2 -i 44 -a 2 -x {1.0 3.0 44 ------- null}
h -t 0.334 -s 2 -d 3 -p cbr -e 500 -c 2 -i 44 -a 2 -x {1.0 3.0 -1 ------- null}
+ -t 0.335 -s 1 -d 2 -p cbr -e 500 -c 2 -i 47 -a 2 -x {1.0 3.0 47 ------- null}
- -t 0.335 -s 1 -d 2 -p cbr -e 500 -c 2 -i 47 -a 2 -x {1.0 3.0 47 ------- null}
h -t 0.335 -s 1 -d 2 -p cbr -e 500 -c 2 -i 47 -a 2 -x {1.0 3.0 -1 ------- null}
r -t 0.338 -s 2 -d 3 -p cbr -e 500 -c 2 -i 42 -a 2 -x {1.0 3.0 42 ------- null}
r -t 0.339 -s 1 -d 2 -p cbr -e 500 -c 2 -i 45 -a 2 -x {1.0 3.0 45 ------- null}
+ -t 0.339 -s 2 -d 3 -p cbr -e 500 -c 2 -i 45 -a 2 -x {1.0 3.0 45 ------- null}
- -t 0.339 -s 2 -d 3 -p cbr -e 500 -c 2 -i 45 -a 2 -x {1.0 3.0 45 ------- null}